
     Program PWSCF v.7.2 starts on 15Apr2024 at 16:56:15 

     This program is part of the open-source Quantum ESPRESSO suite
     for quantum simulation of materials; please cite
         "P. Giannozzi et al., J. Phys.:Condens. Matter 21 395502 (2009);
         "P. Giannozzi et al., J. Phys.:Condens. Matter 29 465901 (2017);
         "P. Giannozzi et al., J. Chem. Phys. 152 154105 (2020);
          URL http://www.quantum-espresso.org", 
     in publications or presentations arising from this work. More details at
     http://www.quantum-espresso.org/quote

     Parallel version (MPI & OpenMP), running on       8 processor cores
     Number of MPI processes:                 8
     Threads/MPI process:                     1

     MPI processes distributed on     1 nodes
     0 MiB available memory on the printing compute node when the environment starts

     Waiting for input...
     Reading input from standard input
Warning: card &CELL ignored
Warning: card CELL_DOFREE = 'ALL' ignored
Warning: card / ignored

     Current dimensions of program PWSCF are:
     Max number of different atomic species (ntypx) = 10
     Max number of k-points (npk) =  40000
     Max angular momentum in pseudopotentials (lmaxx) =  4

     IMPORTANT: XC functional enforced from input :
     Exchange-correlation= VDW-DF2-B86R
                           (   1   4  26   0   2   0   0)
     Any further DFT definition will be discarded
     Please, verify this is what you really want


     R & G space division:  proc/nbgrp/npool/nimage =       8
     Subspace diagonalization in iterative solution of the eigenvalue problem:
     a serial algorithm will be used


     Parallelization info
     --------------------
     sticks:   dense  smooth     PW     G-vecs:    dense   smooth      PW
     Min          90      90     26                15600    15600    2466
     Max          91      91     28                15623    15623    2484
     Sum         721     721    211               124857   124857   19791

     Using Slab Decomposition



     bravais-lattice index     =            4
     lattice parameter (alat)  =       4.6654  a.u.
     unit-cell volume          =     703.5285 (a.u.)^3
     number of atoms/cell      =            4
     number of atomic types    =            1
     number of electrons       =        16.00
     number of Kohn-Sham states=           12
     kinetic-energy cutoff     =     120.0000  Ry
     charge density cutoff     =     480.0000  Ry
     scf convergence threshold =      1.0E-06
     mixing beta               =       0.7000
     number of iterations used =            8  plain     mixing
     energy convergence thresh.=      1.0E-04
     force convergence thresh. =      1.0E-03
     Exchange-correlation= VDW-DF2-B86R
                           (   1   4  26   0   2   0   0)
     nstep                     =           50


     celldm(1)=   4.665380  celldm(2)=   0.000000  celldm(3)=   8.000000
     celldm(4)=   0.000000  celldm(5)=   0.000000  celldm(6)=   0.000000

     crystal axes: (cart. coord. in units of alat)
               a(1) = (   1.000000   0.000000   0.000000 )  
               a(2) = (  -0.500000   0.866025   0.000000 )  
               a(3) = (   0.000000   0.000000   8.000000 )  

     reciprocal axes: (cart. coord. in units 2 pi/alat)
               b(1) = (  1.000000  0.577350 -0.000000 )  
               b(2) = (  0.000000  1.154701  0.000000 )  
               b(3) = (  0.000000 -0.000000  0.125000 )  


     PseudoPot. # 1 for C  read from file:
     ../../../../Pseudo/PBE/C.upf
     MD5 check sum: 34a24e64c0a39f27c6c36b90a16ac686
     Pseudo is Norm-conserving + core correction, Zval =  4.0
     Generated using ONCVPSP code by D. R. Hamann
     Using radial grid of 1248 points,  4 beta functions with: 
                l(1) =   0
                l(2) =   0
                l(3) =   1
                l(4) =   1

     atomic species   valence    mass     pseudopotential
        C              4.00    12.01100     C ( 1.00)

     12 Sym. Ops. (no inversion) found ( 6 have fractional translation)


                                    s                        frac. trans.

      isym =  1     identity                                     

 cryst.   s( 1) = (     1          0          0      )
                  (     0          1          0      )
                  (     0          0          1      )

 cart.    s( 1) = (  1.0000000  0.0000000  0.0000000 )
                  (  0.0000000  1.0000000  0.0000000 )
                  (  0.0000000  0.0000000  1.0000000 )


      isym =  2     180 deg rotation - cart. axis [0,0,1]        

 cryst.   s( 2) = (    -1          0          0      )    f =(  0.3333330 )
                  (     0         -1          0      )       ( -0.3333330 )
                  (     0          0          1      )       (  0.0000000 )

 cart.    s( 2) = ( -1.0000000  0.0000000  0.0000000 )    f =(  0.4999995 )
                  (  0.0000000 -1.0000000  0.0000000 )       ( -0.2886748 )
                  (  0.0000000  0.0000000  1.0000000 )       (  0.0000000 )


      isym =  3      60 deg rotation - cryst. axis [0,0,1]       

 cryst.   s( 3) = (     1          1          0      )    f =(  0.3333340 )
                  (    -1          0          0      )       ( -0.3333330 )
                  (     0          0          1      )       (  0.0000000 )

 cart.    s( 3) = (  0.5000000 -0.8660254  0.0000000 )    f =(  0.5000005 )
                  (  0.8660254  0.5000000  0.0000000 )       ( -0.2886748 )
                  (  0.0000000  0.0000000  1.0000000 )       (  0.0000000 )


      isym =  4      60 deg rotation - cryst. axis [0,0,-1]      

 cryst.   s( 4) = (     0         -1          0      )    f =(  0.3333330 )
                  (     1          1          0      )       ( -0.3333340 )
                  (     0          0          1      )       (  0.0000000 )

 cart.    s( 4) = (  0.5000000  0.8660254  0.0000000 )    f =(  0.5000000 )
                  ( -0.8660254  0.5000000  0.0000000 )       ( -0.2886757 )
                  (  0.0000000  0.0000000  1.0000000 )       (  0.0000000 )


      isym =  5     120 deg rotation - cryst. axis [0,0,1]       

 cryst.   s( 5) = (     0          1          0      )
                  (    -1         -1          0      )
                  (     0          0          1      )

 cart.    s( 5) = ( -0.5000000 -0.8660254  0.0000000 )
                  (  0.8660254 -0.5000000  0.0000000 )
                  (  0.0000000  0.0000000  1.0000000 )


      isym =  6     120 deg rotation - cryst. axis [0,0,-1]      

 cryst.   s( 6) = (    -1         -1          0      )
                  (     1          0          0      )
                  (     0          0          1      )

 cart.    s( 6) = ( -0.5000000  0.8660254  0.0000000 )
                  ( -0.8660254 -0.5000000  0.0000000 )
                  (  0.0000000  0.0000000  1.0000000 )


      isym =  7     inv. 180 deg rotation - cart. axis [0,1,0]   

 cryst.   s( 7) = (     1          0          0      )    f =(  0.3333340 )
                  (    -1         -1          0      )       ( -0.3333330 )
                  (     0          0          1      )       (  0.0000000 )

 cart.    s( 7) = (  1.0000000  0.0000000  0.0000000 )    f =(  0.5000005 )
                  (  0.0000000 -1.0000000  0.0000000 )       ( -0.2886748 )
                  (  0.0000000  0.0000000  1.0000000 )       (  0.0000000 )


      isym =  8     inv. 180 deg rotation - cart. axis [1,0,0]   

 cryst.   s( 8) = (    -1          0          0      )
                  (     1          1          0      )
                  (     0          0          1      )

 cart.    s( 8) = ( -1.0000000  0.0000000  0.0000000 )
                  (  0.0000000  1.0000000  0.0000000 )
                  (  0.0000000  0.0000000  1.0000000 )


      isym =  9     inv. 180 deg rotation - cryst. axis [1,-1,0] 

 cryst.   s( 9) = (     0          1          0      )    f =(  0.3333330 )
                  (     1          0          0      )       ( -0.3333330 )
                  (     0          0          1      )       (  0.0000000 )

 cart.    s( 9) = ( -0.5000000  0.8660254  0.0000000 )    f =(  0.4999995 )
                  (  0.8660254  0.5000000  0.0000000 )       ( -0.2886748 )
                  (  0.0000000  0.0000000  1.0000000 )       (  0.0000000 )


      isym = 10     inv. 180 deg rotation - cryst. axis [2,1,0]  

 cryst.   s(10) = (    -1         -1          0      )    f =(  0.3333330 )
                  (     0          1          0      )       ( -0.3333340 )
                  (     0          0          1      )       (  0.0000000 )

 cart.    s(10) = ( -0.5000000 -0.8660254  0.0000000 )    f =(  0.5000000 )
                  ( -0.8660254  0.5000000  0.0000000 )       ( -0.2886757 )
                  (  0.0000000  0.0000000  1.0000000 )       (  0.0000000 )


      isym = 11     inv. 180 deg rotation - cryst. axis [0,1,0]  

 cryst.   s(11) = (     1          1          0      )
                  (     0         -1          0      )
                  (     0          0          1      )

 cart.    s(11) = (  0.5000000  0.8660254  0.0000000 )
                  (  0.8660254 -0.5000000  0.0000000 )
                  (  0.0000000  0.0000000  1.0000000 )


      isym = 12     inv. 180 deg rotation - cryst. axis [1,1,0]  

 cryst.   s(12) = (     0         -1          0      )
                  (    -1          0          0      )
                  (     0          0          1      )

 cart.    s(12) = (  0.5000000 -0.8660254  0.0000000 )
                  ( -0.8660254 -0.5000000  0.0000000 )
                  (  0.0000000  0.0000000  1.0000000 )


     point group C_6v (6mm) 
     there are  6 classes
     the character table:

       E     2C6   2C3   C2    3s_v  3s_d 
A_1    1.00  1.00  1.00  1.00  1.00  1.00
A_2    1.00  1.00  1.00  1.00 -1.00 -1.00
B_1    1.00 -1.00  1.00 -1.00  1.00 -1.00
B_2    1.00 -1.00  1.00 -1.00 -1.00  1.00
E_1    2.00  1.00 -1.00 -2.00  0.00  0.00
E_2    2.00 -1.00 -1.00  2.00  0.00  0.00

     the symmetry operations in each class and the name of the first element:

     E        1
          identity                                               
     2C6      3    4
           60 deg rotation - cryst. axis [0,0,1]                 
     2C3      5    6
          120 deg rotation - cryst. axis [0,0,1]                 
     C2       2
          180 deg rotation - cart. axis [0,0,1]                  
     3s_v     8   12   11
          inv. 180 deg rotation - cart. axis [1,0,0]             
     3s_d     7    9   10
          inv. 180 deg rotation - cart. axis [0,1,0]             

   Cartesian axes

     site n.     atom                  positions (alat units)
         1           C   tau(   1) = (   0.0000000   0.0000000   0.0000000  )
         2           C   tau(   2) = (   0.5000005   0.2886748   0.0000000  )
         3           C   tau(   3) = (   0.0000000   0.0000000   1.3404640  )
         4           C   tau(   4) = (   0.5000005   0.2886748   1.3404640  )

   Crystallographic axes

     site n.     atom                  positions (cryst. coord.)
         1           C   tau(   1) = (  0.0000000  0.0000000  0.0000000  )
         2           C   tau(   2) = (  0.6666670  0.3333330  0.0000000  )
         3           C   tau(   3) = (  0.0000000  0.0000000  0.1675580  )
         4           C   tau(   4) = (  0.6666670  0.3333330  0.1675580  )

     number of k points=    19  Marzari-Vanderbilt smearing, width (Ry)=  0.0050
                       cart. coord. in units 2pi/alat
        k(    1) = (   0.0000000   0.0000000   0.0000000), wk =   0.0138889
        k(    2) = (   0.0000000   0.0962250   0.0000000), wk =   0.0833333
        k(    3) = (   0.0000000   0.1924501   0.0000000), wk =   0.0833333
        k(    4) = (   0.0000000   0.2886751   0.0000000), wk =   0.0833333
        k(    5) = (   0.0000000   0.3849002   0.0000000), wk =   0.0833333
        k(    6) = (   0.0000000   0.4811252   0.0000000), wk =   0.0833333
        k(    7) = (   0.0000000  -0.5773503   0.0000000), wk =   0.0416667
        k(    8) = (   0.0833333   0.1443376   0.0000000), wk =   0.0833333
        k(    9) = (   0.0833333   0.2405626   0.0000000), wk =   0.1666667
        k(   10) = (   0.0833333   0.3367877   0.0000000), wk =   0.1666667
        k(   11) = (   0.0833333   0.4330127   0.0000000), wk =   0.1666667
        k(   12) = (   0.0833333   0.5292377   0.0000000), wk =   0.1666667
        k(   13) = (   0.1666667   0.2886751   0.0000000), wk =   0.0833333
        k(   14) = (   0.1666667   0.3849002   0.0000000), wk =   0.1666667
        k(   15) = (   0.1666667   0.4811252   0.0000000), wk =   0.1666667
        k(   16) = (   0.1666667   0.5773503   0.0000000), wk =   0.0833333
        k(   17) = (   0.2500000   0.4330127   0.0000000), wk =   0.0833333
        k(   18) = (   0.2500000   0.5292377   0.0000000), wk =   0.1666667
        k(   19) = (   0.3333333   0.5773503   0.0000000), wk =   0.0277778

                       cryst. coord.
        k(    1) = (   0.0000000   0.0000000   0.0000000), wk =   0.0138889
        k(    2) = (   0.0000000   0.0833333   0.0000000), wk =   0.0833333
        k(    3) = (   0.0000000   0.1666667   0.0000000), wk =   0.0833333
        k(    4) = (   0.0000000   0.2500000   0.0000000), wk =   0.0833333
        k(    5) = (   0.0000000   0.3333333   0.0000000), wk =   0.0833333
        k(    6) = (   0.0000000   0.4166667   0.0000000), wk =   0.0833333
        k(    7) = (   0.0000000  -0.5000000   0.0000000), wk =   0.0416667
        k(    8) = (   0.0833333   0.0833333   0.0000000), wk =   0.0833333
        k(    9) = (   0.0833333   0.1666667   0.0000000), wk =   0.1666667
        k(   10) = (   0.0833333   0.2500000   0.0000000), wk =   0.1666667
        k(   11) = (   0.0833333   0.3333333   0.0000000), wk =   0.1666667
        k(   12) = (   0.0833333   0.4166667   0.0000000), wk =   0.1666667
        k(   13) = (   0.1666667   0.1666667   0.0000000), wk =   0.0833333
        k(   14) = (   0.1666667   0.2500000   0.0000000), wk =   0.1666667
        k(   15) = (   0.1666667   0.3333333   0.0000000), wk =   0.1666667
        k(   16) = (   0.1666667   0.4166667   0.0000000), wk =   0.0833333
        k(   17) = (   0.2500000   0.2500000   0.0000000), wk =   0.0833333
        k(   18) = (   0.2500000   0.3333333   0.0000000), wk =   0.1666667
        k(   19) = (   0.3333333   0.3333333   0.0000000), wk =   0.0277778

     Dense  grid:   124857 G-vectors     FFT dimensions: (  36,  36, 270)

     Dynamical RAM for                 wfc:       0.36 MB

     Dynamical RAM for     wfc (w. buffer):       7.15 MB

     Dynamical RAM for           str. fact:       0.24 MB

     Dynamical RAM for           local pot:       0.00 MB

     Dynamical RAM for          nlocal pot:       0.95 MB

     Dynamical RAM for                qrad:       0.50 MB

     Dynamical RAM for          rho,v,vnew:       1.72 MB

     Dynamical RAM for               rhoin:       0.57 MB

     Dynamical RAM for            rho*nmix:       3.81 MB

     Dynamical RAM for           G-vectors:       1.01 MB

     Dynamical RAM for          h,s,v(r/c):       0.03 MB

     Dynamical RAM for          <psi|beta>:       0.01 MB

     Dynamical RAM for                 psi:       0.71 MB

     Dynamical RAM for                hpsi:       0.71 MB

     Dynamical RAM for      wfcinit/wfcrot:       0.96 MB

     Estimated static dynamical RAM per process >      14.31 MB

     Estimated max dynamical RAM per process >      19.58 MB

     Estimated total dynamical RAM >     156.65 MB

     Initial potential from superposition of free atoms

     starting charge      15.9998, renormalised to      16.0000

     negative rho (up, down):  3.218E-06 0.000E+00


     %%%%%%%%%%%%%%%%%%%%%%%%%%%%%%%%%%%%%%%%%%%%%%%%%%%%%%%%%%%%%%%%%%%%%%%%
     %                                                                      %
     % You are using vdW-DF, which was implemented by the Thonhauser group. %
     % Please cite the following two papers that made this development      %
     % possible and the two reviews that describe the various versions:     %
     %                                                                      %
     %   T. Thonhauser et al., PRL 115, 136402 (2015).                      %
     %   T. Thonhauser et al., PRB 76, 125112 (2007).                       %
     %   K. Berland et al., Rep. Prog. Phys. 78, 066501 (2015).             %
     %   D.C. Langreth et al., J. Phys.: Condens. Matter 21, 084203 (2009). %
     %                                                                      %
     % If you are calculating stress with vdW-DF, please also cite:         %
     %                                                                      %
     %   R. Sabatini et al., J. Phys.: Condens. Matter 24, 424209 (2012).   %
     %                                                                      %
     %%%%%%%%%%%%%%%%%%%%%%%%%%%%%%%%%%%%%%%%%%%%%%%%%%%%%%%%%%%%%%%%%%%%%%%%

     %%%%%%%%%%%%%%%%%%%%%%%%%%%%%%%%%%%%%%%%%%%%%%%%%%%%%%%%%%%%%%%%%%%%%%%%
     %                                                                      %
     %  vdW-DF NEWS:                                                        %
     %                                                                      %
     %  * vdW-DF3 is now available. DOI: 10.1021/acs.jctc.0c00471           %
     %    use with input_dft = 'vdW-DF3-opt1' or 'vdW-DF3-opt2'             %
     %                                                                      %
     %  * Unscreened and range-separated hybrid vdW-DF-cx functionals       %
     %    DOI: 10.1063/1.4986522 and 10.1088/1361-648X/ac2ad2               %
     %    use with input_dft = 'vdW-DF-cx0'    and 'vdW-DF-ahcx'            %
     %  * Unscreened and range-separated hybrid vdW-DF2-b86r functionals    %
     %    DOI: 10.1063/1.4986522 and DOI: 10.1103/PhysRevX.12.041003        %
     %    use with input_dft = 'vdW-DF2-br0' and 'vdW-DF2-ahbr'             %
     %                                                                      %
     %%%%%%%%%%%%%%%%%%%%%%%%%%%%%%%%%%%%%%%%%%%%%%%%%%%%%%%%%%%%%%%%%%%%%%%%


     Carrying out vdW-DF run using the following parameters:
     Nqs    =  20  Npoints =  1024  r_max =  100.000
     q_mesh =  0.00001000  0.04494208  0.09755937  0.15916263
               0.23128650  0.31572767  0.41458969  0.53033537
               0.66584808  0.82450364  1.01025438  1.22772762
               1.48234092  1.78043706  2.12944203  2.53805004
               3.01644009  3.57652955  4.23227104  5.00000000


     -----------------------------------------------
     Non-local corr. energy    =       0.17033888 Ry
     -----------------------------------------------

     Starting wfcs are   16 randomized atomic wfcs

     total cpu time spent up to now is        9.2 secs

     Self-consistent Calculation

     iteration #  1     ecut=   120.00 Ry     beta= 0.70
     Davidson diagonalization with overlap

---- Real-time Memory Report at c_bands before calling an iterative solver
             0 MiB given to the printing process from OS
             0 MiB allocation reported by mallinfo(arena+hblkhd)
             0 MiB available memory on the node where the printing process lives
------------------
     ethr =  1.00E-02,  avg # of iterations =  3.4


     -----------------------------------------------
     Non-local corr. energy    =       0.19384434 Ry
     -----------------------------------------------


     total cpu time spent up to now is       10.6 secs

     total energy              =     -48.21041182 Ry
     estimated scf accuracy    <       0.34629286 Ry

     iteration #  2     ecut=   120.00 Ry     beta= 0.70
     Davidson diagonalization with overlap

---- Real-time Memory Report at c_bands before calling an iterative solver
             0 MiB given to the printing process from OS
             0 MiB allocation reported by mallinfo(arena+hblkhd)
             0 MiB available memory on the node where the printing process lives
------------------
     ethr =  2.16E-03,  avg # of iterations =  3.7


     -----------------------------------------------
     Non-local corr. energy    =       0.19470115 Ry
     -----------------------------------------------


     total cpu time spent up to now is       11.8 secs

     total energy              =     -48.25230601 Ry
     estimated scf accuracy    <       0.00537001 Ry

     iteration #  3     ecut=   120.00 Ry     beta= 0.70
     Davidson diagonalization with overlap

---- Real-time Memory Report at c_bands before calling an iterative solver
             0 MiB given to the printing process from OS
             0 MiB allocation reported by mallinfo(arena+hblkhd)
             0 MiB available memory on the node where the printing process lives
------------------
     c_bands:  1 eigenvalues not converged
     c_bands:  1 eigenvalues not converged
     ethr =  3.36E-05,  avg # of iterations = 12.3


     -----------------------------------------------
     Non-local corr. energy    =       0.19433186 Ry
     -----------------------------------------------


     total cpu time spent up to now is       13.9 secs

     total energy              =     -48.25379225 Ry
     estimated scf accuracy    <       0.00127700 Ry

     iteration #  4     ecut=   120.00 Ry     beta= 0.70
     Davidson diagonalization with overlap

---- Real-time Memory Report at c_bands before calling an iterative solver
             0 MiB given to the printing process from OS
             0 MiB allocation reported by mallinfo(arena+hblkhd)
             0 MiB available memory on the node where the printing process lives
------------------
     ethr =  7.98E-06,  avg # of iterations =  3.8


     -----------------------------------------------
     Non-local corr. energy    =       0.19425343 Ry
     -----------------------------------------------


     total cpu time spent up to now is       15.3 secs

     total energy              =     -48.25413004 Ry
     estimated scf accuracy    <       0.00060201 Ry

     iteration #  5     ecut=   120.00 Ry     beta= 0.70
     Davidson diagonalization with overlap

---- Real-time Memory Report at c_bands before calling an iterative solver
             0 MiB given to the printing process from OS
             0 MiB allocation reported by mallinfo(arena+hblkhd)
             0 MiB available memory on the node where the printing process lives
------------------
     ethr =  3.76E-06,  avg # of iterations =  4.0


     -----------------------------------------------
     Non-local corr. energy    =       0.19443274 Ry
     -----------------------------------------------


     total cpu time spent up to now is       16.6 secs

     total energy              =     -48.25424326 Ry
     estimated scf accuracy    <       0.00000900 Ry

     iteration #  6     ecut=   120.00 Ry     beta= 0.70
     Davidson diagonalization with overlap

---- Real-time Memory Report at c_bands before calling an iterative solver
             0 MiB given to the printing process from OS
             0 MiB allocation reported by mallinfo(arena+hblkhd)
             0 MiB available memory on the node where the printing process lives
------------------
     ethr =  5.62E-08,  avg # of iterations =  3.1


     -----------------------------------------------
     Non-local corr. energy    =       0.19439433 Ry
     -----------------------------------------------


     total cpu time spent up to now is       17.9 secs

     End of self-consistent calculation

          k = 0.0000 0.0000 0.0000 ( 15581 PWs)   bands (ev):

   -20.1447 -19.9702  -8.7333  -7.6478  -3.6504  -3.6504  -3.6281  -3.6281
     2.5701   2.9988   4.1444   5.2690

     occupation numbers 
     1.0000   1.0000   1.0000   1.0000   1.0000   1.0000   1.0000   1.0000
     0.0000   0.0000   0.0000   0.0000

          k = 0.0000 0.0962 0.0000 ( 15560 PWs)   bands (ev):

   -19.9805 -19.8076  -8.5347  -7.4551  -4.3011  -4.2721  -3.9875  -3.9636
     2.7899   3.2206   4.3705   5.4936

     occupation numbers 
     1.0000   1.0000   1.0000   1.0000   1.0000   1.0000   1.0000   1.0000
     0.0000   0.0000   0.0000   0.0000

          k = 0.0000 0.1925 0.0000 ( 15558 PWs)   bands (ev):

   -19.4897 -19.3217  -7.9439  -6.8825  -5.9395  -5.8948  -4.7781  -4.7509
     3.4489   3.8848   5.0486   6.1664

     occupation numbers 
     1.0000   1.0000   1.0000   1.0000   1.0000   1.0000   1.0000   1.0000
     0.0000   0.0000   0.0000   0.0000

          k = 0.0000 0.2887 0.0000 ( 15612 PWs)   bands (ev):

   -18.6781 -18.5181  -8.0398  -7.9765  -6.9785  -5.9502  -5.6570  -5.6271
     4.5435   4.9799   6.1723   6.3456

     occupation numbers 
     1.0000   1.0000   1.0000   1.0000   1.0000   1.0000   1.0000   1.0000
     0.0000   0.0000   0.0000   0.0000

          k = 0.0000 0.3849 0.0000 ( 15662 PWs)   bands (ev):

   -17.5581 -17.4087 -10.2450 -10.1632  -6.3904  -6.3587  -5.6863  -4.7113
     3.9628   4.6667   6.0629   6.5621

     occupation numbers 
     1.0000   1.0000   1.0000   1.0000   1.0000   1.0000   1.0000   1.0000
     0.0000   0.0000   0.0000   0.0000

          k = 0.0000 0.4811 0.0000 ( 15634 PWs)   bands (ev):

   -16.1616 -16.0246 -12.3463 -12.2474  -6.8636  -6.8308  -4.2239  -3.3337
     1.7506   2.6248   6.8306   7.0635

     occupation numbers 
     1.0000   1.0000   1.0000   1.0000   1.0000   1.0000   1.0000   1.0000
     0.0000   0.0000   0.0000   0.0000

          k = 0.0000-0.5774 0.0000 ( 15610 PWs)   bands (ev):

   -14.9047 -14.7740 -13.8461 -13.7392  -7.0260  -6.9929  -3.3386  -2.5307
     0.6000   1.5832   6.7508   6.9815

     occupation numbers 
     1.0000   1.0000   1.0000   1.0000   1.0000   1.0000   1.0000   1.0000
     0.0000   0.0000   0.0000   0.0000

          k = 0.0833 0.1443 0.0000 ( 15550 PWs)   bands (ev):

   -19.6530 -19.4834  -8.1399  -7.0723  -5.3360  -5.2976  -4.6628  -4.6342
     3.2296   3.6638   4.8228   5.9426

     occupation numbers 
     1.0000   1.0000   1.0000   1.0000   1.0000   1.0000   1.0000   1.0000
     0.0000   0.0000   0.0000   0.0000

          k = 0.0833 0.2406 0.0000 ( 15567 PWs)   bands (ev):

   -19.0018 -18.8387  -7.3609  -7.0473  -6.9939  -6.3186  -5.6593  -5.6247
     4.1076   4.5469   5.7267   6.8387

     occupation numbers 
     1.0000   1.0000   1.0000   1.0000   1.0000   1.0000   1.0000   1.0000
     0.0000   0.0000   0.0000   0.0000

          k = 0.0833 0.3368 0.0000 ( 15618 PWs)   bands (ev):

   -18.0358 -17.8820  -9.1220  -9.0502  -6.5460  -6.5076  -6.2257  -5.2261
     5.0268   5.4225   5.5730   5.9519

     occupation numbers 
     1.0000   1.0000   1.0000   1.0000   1.0000   1.0000   1.0000   1.0000
     0.0000   0.0000   0.0000   0.0000

          k = 0.0833 0.4330 0.0000 ( 15647 PWs)   bands (ev):

   -16.7743 -16.6322 -11.2462 -11.1565  -7.1812  -7.1409  -4.8156  -3.8828
     2.7501   3.5154   7.1313   7.6856

     occupation numbers 
     1.0000   1.0000   1.0000   1.0000   1.0000   1.0000   1.0000   1.0000
     0.0000   0.0000   0.0000   0.0000

          k = 0.0833 0.5292 0.0000 ( 15644 PWs)   bands (ev):

   -15.2961 -15.1657 -13.1866 -13.0819  -7.5099  -7.4688  -3.4588  -2.6247
     0.9109   1.8254   7.4749   7.7191

     occupation numbers 
     1.0000   1.0000   1.0000   1.0000   1.0000   1.0000   1.0000   1.0000
     0.0000   0.0000   0.0000   0.0000

          k = 0.1667 0.2887 0.0000 ( 15608 PWs)   bands (ev):

   -18.1962 -18.0409  -8.3817  -8.3176  -7.0189  -6.9719  -6.4080  -5.4004
     5.2021   5.5078   5.6443   6.0543

     occupation numbers 
     1.0000   1.0000   1.0000   1.0000   1.0000   1.0000   1.0000   1.0000
     0.0000   0.0000   0.0000   0.0000

          k = 0.1667 0.3849 0.0000 ( 15631 PWs)   bands (ev):

   -17.0872 -16.9423 -10.1102 -10.0309  -8.0757  -8.0215  -5.1310  -4.1767
     3.5201   4.1636   6.7211   7.1646

     occupation numbers 
     1.0000   1.0000   1.0000   1.0000   1.0000   1.0000   1.0000   1.0000
     0.0000   0.0000   0.0000   0.0000

          k = 0.1667 0.4811 0.0000 ( 15642 PWs)   bands (ev):

   -15.7107 -15.5782 -12.0206 -11.9248  -8.6533  -8.5961  -3.6668  -2.7927
     1.5513   2.3180   8.6265   9.3374

     occupation numbers 
     1.0000   1.0000   1.0000   1.0000   1.0000   1.0000   1.0000   1.0000
     0.0000   0.0000   0.0000   0.0000

          k = 0.1667 0.5774 0.0000 ( 15640 PWs)   bands (ev):

   -14.4822 -14.3569 -13.4494 -13.3448  -8.8387  -8.7806  -2.7357  -1.9396
     0.4364   1.2991   9.2061   9.5358

     occupation numbers 
     1.0000   1.0000   1.0000   1.0000   1.0000   1.0000   1.0000   1.0000
     0.0000   0.0000   0.0000   0.0000

          k = 0.2500 0.4330 0.0000 ( 15658 PWs)   bands (ev):

   -15.8581 -15.7246 -11.1509 -11.0621  -9.5553  -9.4881  -3.7587  -2.8688
     1.8939   2.5739   8.4212   8.8139

     occupation numbers 
     1.0000   1.0000   1.0000   1.0000   1.0000   1.0000   1.0000   1.0000
     0.0000   0.0000   0.0000   0.0000

          k = 0.2500 0.5292 0.0000 ( 15617 PWs)   bands (ev):

   -14.4370 -14.3155 -12.5705 -12.4693 -10.2641 -10.1915  -2.3338  -1.5263
     0.3435   1.0914   9.3880  10.4432

     occupation numbers 
     1.0000   1.0000   1.0000   1.0000   1.0000   1.0000   1.0000   1.0000
     0.0000   0.0000   0.0000   0.0000

          k = 0.3333 0.5774 0.0000 ( 15606 PWs)   bands (ev):

   -13.2209 -13.2209 -13.1106 -13.1106 -11.1515 -11.0735  -0.9550  -0.9550
    -0.1981  -0.1980   8.9190  10.8403

     occupation numbers 
     1.0000   1.0000   1.0000   1.0000   1.0000   1.0000   1.0000   1.0000
     0.0000   0.0000   0.0000   0.0000

     the Fermi energy is    -0.6090 ev

!    total energy              =     -48.25424650 Ry
     estimated scf accuracy    <       0.00000076 Ry
     smearing contrib. (-TS)   =       0.00000000 Ry
     internal energy E=F+TS    =     -48.25424650 Ry

     The total energy is F=E-TS. E is the sum of the following terms:
     one-electron contribution =    -528.90455400 Ry
     hartree contribution      =     268.12335358 Ry
     xc contribution           =     -17.21468427 Ry
     ewald contribution        =     229.74163819 Ry

     convergence has been achieved in   6 iterations


     -----------------------------------------------
     Non-local corr. energy    =       0.19439433 Ry
     -----------------------------------------------


     Forces acting on atoms (cartesian axes, Ry/au):

     atom    1 type  1   force =     0.00000000    0.00000000   -0.00196740
     atom    2 type  1   force =     0.00000000    0.00000000   -0.00196740
     atom    3 type  1   force =     0.00000000    0.00000000    0.00196740
     atom    4 type  1   force =     0.00000000    0.00000000    0.00196740
     The non-local contrib.  to forces
     atom    1 type  1   force =     0.00000000    0.00000000   -0.00225291
     atom    2 type  1   force =     0.00000000   -0.00000000   -0.00225291
     atom    3 type  1   force =     0.00000000   -0.00000000    0.00219042
     atom    4 type  1   force =     0.00000000    0.00000000    0.00219042
     The ionic contribution  to forces
     atom    1 type  1   force =     0.00000851   -0.00000491  -14.18599420
     atom    2 type  1   force =    -0.00000851    0.00000491  -14.18599420
     atom    3 type  1   force =     0.00000851   -0.00000491   14.18599420
     atom    4 type  1   force =    -0.00000851    0.00000491   14.18599420
     The local contribution  to forces
     atom    1 type  1   force =     0.00000000    0.00000000   14.18584217
     atom    2 type  1   force =    -0.00000680    0.00000393   14.18584216
     atom    3 type  1   force =     0.00000000    0.00000000  -14.18737651
     atom    4 type  1   force =    -0.00000680    0.00000392  -14.18737650
     The core correction contribution to forces
     atom    1 type  1   force =    -0.00000000    0.00000000    0.00006636
     atom    2 type  1   force =     0.00000053   -0.00000031    0.00006636
     atom    3 type  1   force =    -0.00000000    0.00000000   -0.00007155
     atom    4 type  1   force =     0.00000053   -0.00000031   -0.00007155
     The Hubbard contrib.    to forces
     atom    1 type  1   force =     0.00000000    0.00000000    0.00000000
     atom    2 type  1   force =     0.00000000    0.00000000    0.00000000
     atom    3 type  1   force =     0.00000000    0.00000000    0.00000000
     atom    4 type  1   force =     0.00000000    0.00000000    0.00000000
     The SCF correction term to forces
     atom    1 type  1   force =    -0.00000000    0.00000000    0.00000000
     atom    2 type  1   force =    -0.00000000    0.00000000    0.00000000
     atom    3 type  1   force =     0.00000000   -0.00000000    0.00121361
     atom    4 type  1   force =    -0.00000000    0.00000000    0.00121361

     Total force =     0.002782     Total SCF correction =     0.001716
     SCF correction compared to forces is large: reduce conv_thr to get better values


     Computing stress (Cartesian axis) and pressure



     -----------------------------------------------
     Non-local corr. energy    =       0.19439433 Ry
     -----------------------------------------------

          total   stress  (Ry/bohr**3)                   (kbar)     P=        0.82
  -0.00000709   0.00000000  -0.00000000           -1.04        0.00       -0.00
   0.00000000  -0.00000709  -0.00000000            0.00       -1.04       -0.00
  -0.00000000  -0.00000000   0.00003100           -0.00       -0.00        4.56

     kinetic stress (kbar)   4522.96     -0.00     -0.00
                               -0.00   4522.96      0.00
                               -0.00      0.00   4985.22

     local   stress (kbar)-115024.06      0.00     -0.00
                                0.00-115024.06      0.00
                               -0.00      0.00 116365.23

     nonloc. stress (kbar)   -460.09      0.00      0.00
                                0.00   -460.09      0.00
                                0.00      0.00   -385.36

     hartree stress (kbar)  55713.21      0.00      0.00
                                0.00  55713.21      0.00
                                0.00      0.00 -55362.87

     exc-cor stress (kbar)   -360.14     -0.00      0.00
                               -0.00   -360.14     -0.00
                                0.00     -0.00   -419.54

     corecor stress (kbar)   -686.09      0.00      0.00
                                0.00   -686.09     -0.00
                                0.00     -0.00   -667.41

     ewald   stress (kbar)  56290.05     -0.01     -0.00
                               -0.01  56290.04      0.00
                               -0.00      0.00 -64542.01

     hubbard stress (kbar)      0.00      0.00      0.00
                                0.00      0.00      0.00
                                0.00      0.00      0.00

     DFT-D   stress (kbar)      0.00      0.00      0.00
                                0.00      0.00      0.00
                                0.00      0.00      0.00

     XDM     stress (kbar)      0.00      0.00      0.00
                                0.00      0.00      0.00
                                0.00      0.00      0.00

     dft-nl  stress (kbar)      3.12      0.00     -0.00
                                0.00      3.12      0.00
                               -0.00      0.00     31.30

     TS-vdW  stress (kbar)      0.00      0.00      0.00
                                0.00      0.00      0.00
                                0.00      0.00      0.00

     MDB     stress (kbar)      0.00      0.00      0.00
                                0.00      0.00      0.00
                                0.00      0.00      0.00

     3D-RISM stress (kbar)      0.00      0.00      0.00
                                0.00      0.00      0.00
                                0.00      0.00      0.00


     BFGS Geometry Optimization
     Energy error            =      0.0E+00 Ry
     Gradient error          =      2.0E-03 Ry/Bohr

     number of scf cycles    =   1
     number of bfgs steps    =   0

     energy             new  =     -48.2542464965 Ry

     new trust radius        =       0.0019674042 bohr
     new conv_thr            =       0.0000010000 Ry


ATOMIC_POSITIONS (crystal)
C             0.0000000000        0.0000000000        0.0000000000    0   0   0
C             0.6666670000        0.3333330000        0.0000000000    0   0   0
C             0.0000000000        0.0000000000        0.1676107129
C             0.6666670000        0.3333330000        0.1676107129



     Writing config-only to output data dir ./tmp/C2L_AB_PBE_vdW.save/
     NEW-OLD atomic charge density approx. for the potential

     negative rho (up, down):  4.549E-08 0.000E+00


     -----------------------------------------------
     Non-local corr. energy    =       0.19441191 Ry
     -----------------------------------------------


     total cpu time spent up to now is       20.0 secs

     Self-consistent Calculation

     iteration #  1     ecut=   120.00 Ry     beta= 0.70
     Davidson diagonalization with overlap

---- Real-time Memory Report at c_bands before calling an iterative solver
             0 MiB given to the printing process from OS
             0 MiB allocation reported by mallinfo(arena+hblkhd)
             0 MiB available memory on the node where the printing process lives
------------------
     ethr =  1.00E-06,  avg # of iterations =  3.0

     Threshold (ethr) on eigenvalues was too large:
     Diagonalizing with lowered threshold

     Davidson diagonalization with overlap

---- Real-time Memory Report at c_bands before calling an iterative solver
             0 MiB given to the printing process from OS
             0 MiB allocation reported by mallinfo(arena+hblkhd)
             0 MiB available memory on the node where the printing process lives
------------------
     ethr =  3.61E-08,  avg # of iterations =  1.1

     negative rho (up, down):  1.125E-08 0.000E+00


     -----------------------------------------------
     Non-local corr. energy    =       0.19442377 Ry
     -----------------------------------------------


     total cpu time spent up to now is       22.4 secs

     total energy              =     -48.25425094 Ry
     estimated scf accuracy    <       0.00000654 Ry

     iteration #  2     ecut=   120.00 Ry     beta= 0.70
     Davidson diagonalization with overlap

---- Real-time Memory Report at c_bands before calling an iterative solver
             0 MiB given to the printing process from OS
             0 MiB allocation reported by mallinfo(arena+hblkhd)
             0 MiB available memory on the node where the printing process lives
------------------
     ethr =  4.09E-08,  avg # of iterations =  2.6


     -----------------------------------------------
     Non-local corr. energy    =       0.19442247 Ry
     -----------------------------------------------


     total cpu time spent up to now is       23.6 secs

     total energy              =     -48.25425047 Ry
     estimated scf accuracy    <       0.00002195 Ry

     iteration #  3     ecut=   120.00 Ry     beta= 0.70
     Davidson diagonalization with overlap

---- Real-time Memory Report at c_bands before calling an iterative solver
             0 MiB given to the printing process from OS
             0 MiB allocation reported by mallinfo(arena+hblkhd)
             0 MiB available memory on the node where the printing process lives
------------------
     ethr =  4.09E-08,  avg # of iterations =  2.0


     -----------------------------------------------
     Non-local corr. energy    =       0.19441983 Ry
     -----------------------------------------------


     total cpu time spent up to now is       24.7 secs

     End of self-consistent calculation

          k = 0.0000 0.0000 0.0000 ( 15581 PWs)   bands (ev):

   -20.1493 -19.9752  -8.7360  -7.6524  -3.6561  -3.6560  -3.6340  -3.6339
     2.5707   3.0001   4.1706   5.2833

     occupation numbers 
     1.0000   1.0000   1.0000   1.0000   1.0000   1.0000   1.0000   1.0000
     0.0000   0.0000   0.0000   0.0000

          k = 0.0000 0.0962 0.0000 ( 15560 PWs)   bands (ev):

   -19.9851 -19.8127  -8.5374  -7.4596  -4.3067  -4.2778  -3.9932  -3.9694
     2.7905   3.2219   4.3966   5.5078

     occupation numbers 
     1.0000   1.0000   1.0000   1.0000   1.0000   1.0000   1.0000   1.0000
     0.0000   0.0000   0.0000   0.0000

          k = 0.0000 0.1925 0.0000 ( 15558 PWs)   bands (ev):

   -19.4943 -19.3268  -7.9466  -6.8870  -5.9450  -5.9005  -4.7837  -4.7567
     3.4494   3.8860   5.0746   6.1806

     occupation numbers 
     1.0000   1.0000   1.0000   1.0000   1.0000   1.0000   1.0000   1.0000
     0.0000   0.0000   0.0000   0.0000

          k = 0.0000 0.2887 0.0000 ( 15612 PWs)   bands (ev):

   -18.6827 -18.5232  -8.0450  -7.9820  -6.9812  -5.9547  -5.6626  -5.6328
     4.5439   4.9810   6.1962   6.3436

     occupation numbers 
     1.0000   1.0000   1.0000   1.0000   1.0000   1.0000   1.0000   1.0000
     0.0000   0.0000   0.0000   0.0000

          k = 0.0000 0.3849 0.0000 ( 15662 PWs)   bands (ev):

   -17.5628 -17.4139 -10.2501 -10.1686  -6.3959  -6.3644  -5.6891  -4.7159
     3.9595   4.6621   6.0630   6.5629

     occupation numbers 
     1.0000   1.0000   1.0000   1.0000   1.0000   1.0000   1.0000   1.0000
     0.0000   0.0000   0.0000   0.0000

          k = 0.0000 0.4811 0.0000 ( 15634 PWs)   bands (ev):

   -16.1664 -16.0297 -12.3513 -12.2527  -6.8691  -6.8365  -4.2268  -3.3383
     1.7476   2.6203   6.8264   7.0584

     occupation numbers 
     1.0000   1.0000   1.0000   1.0000   1.0000   1.0000   1.0000   1.0000
     0.0000   0.0000   0.0000   0.0000

          k = 0.0000-0.5774 0.0000 ( 15610 PWs)   bands (ev):

   -14.9096 -14.7793 -13.8509 -13.7444  -7.0316  -6.9986  -3.3417  -2.5353
     0.5972   1.5787   6.7466   6.9767

     occupation numbers 
     1.0000   1.0000   1.0000   1.0000   1.0000   1.0000   1.0000   1.0000
     0.0000   0.0000   0.0000   0.0000

          k = 0.0833 0.1443 0.0000 ( 15550 PWs)   bands (ev):

   -19.6576 -19.4885  -8.1426  -7.0768  -5.3415  -5.3033  -4.6684  -4.6399
     3.2301   3.6651   4.8488   5.9568

     occupation numbers 
     1.0000   1.0000   1.0000   1.0000   1.0000   1.0000   1.0000   1.0000
     0.0000   0.0000   0.0000   0.0000

          k = 0.0833 0.2406 0.0000 ( 15567 PWs)   bands (ev):

   -19.0064 -18.8438  -7.3636  -7.0526  -6.9994  -6.3231  -5.6648  -5.6304
     4.1080   4.5480   5.7524   6.8525

     occupation numbers 
     1.0000   1.0000   1.0000   1.0000   1.0000   1.0000   1.0000   1.0000
     0.0000   0.0000   0.0000   0.0000

          k = 0.0833 0.3368 0.0000 ( 15618 PWs)   bands (ev):

   -18.0405 -17.8871  -9.1272  -9.0557  -6.5514  -6.5133  -6.2284  -5.2307
     5.0234   5.4227   5.5695   5.9518

     occupation numbers 
     1.0000   1.0000   1.0000   1.0000   1.0000   1.0000   1.0000   1.0000
     0.0000   0.0000   0.0000   0.0000

          k = 0.0833 0.4330 0.0000 ( 15647 PWs)   bands (ev):

   -16.7791 -16.6373 -11.2513 -11.1618  -7.1866  -7.1465  -4.8185  -3.8874
     2.7470   3.5107   7.1310   7.6817

     occupation numbers 
     1.0000   1.0000   1.0000   1.0000   1.0000   1.0000   1.0000   1.0000
     0.0000   0.0000   0.0000   0.0000

          k = 0.0833 0.5292 0.0000 ( 15644 PWs)   bands (ev):

   -15.3010 -15.1709 -13.1915 -13.0872  -7.5154  -7.4744  -3.4618  -2.6293
     0.9080   1.8208   7.4707   7.7141

     occupation numbers 
     1.0000   1.0000   1.0000   1.0000   1.0000   1.0000   1.0000   1.0000
     0.0000   0.0000   0.0000   0.0000

          k = 0.1667 0.2887 0.0000 ( 15608 PWs)   bands (ev):

   -18.2008 -18.0460  -8.3870  -8.3232  -7.0243  -6.9775  -6.4108  -5.4050
     5.2025   5.5042   5.6455   6.0494

     occupation numbers 
     1.0000   1.0000   1.0000   1.0000   1.0000   1.0000   1.0000   1.0000
     0.0000   0.0000   0.0000   0.0000

          k = 0.1667 0.3849 0.0000 ( 15631 PWs)   bands (ev):

   -17.0919 -16.9475 -10.1154 -10.0364  -8.0810  -8.0270  -5.1339  -4.1813
     3.5167   4.1588   6.7213   7.1655

     occupation numbers 
     1.0000   1.0000   1.0000   1.0000   1.0000   1.0000   1.0000   1.0000
     0.0000   0.0000   0.0000   0.0000

          k = 0.1667 0.4811 0.0000 ( 15642 PWs)   bands (ev):

   -15.7155 -15.5834 -12.0256 -11.9301  -8.6586  -8.6015  -3.6697  -2.7973
     1.5482   2.3133   8.6262   9.0678

     occupation numbers 
     1.0000   1.0000   1.0000   1.0000   1.0000   1.0000   1.0000   1.0000
     0.0000   0.0000   0.0000   0.0000

          k = 0.1667 0.5774 0.0000 ( 15640 PWs)   bands (ev):

   -14.4871 -14.3622 -13.4543 -13.3500  -8.8440  -8.7861  -2.7388  -1.9443
     0.4334   1.2945   9.2019   9.5309

     occupation numbers 
     1.0000   1.0000   1.0000   1.0000   1.0000   1.0000   1.0000   1.0000
     0.0000   0.0000   0.0000   0.0000

          k = 0.2500 0.4330 0.0000 ( 15658 PWs)   bands (ev):

   -15.8629 -15.7298 -11.1560 -11.0675  -9.5604  -9.4935  -3.7616  -2.8734
     1.8906   2.5692   8.4211   8.8146

     occupation numbers 
     1.0000   1.0000   1.0000   1.0000   1.0000   1.0000   1.0000   1.0000
     0.0000   0.0000   0.0000   0.0000

          k = 0.2500 0.5292 0.0000 ( 15617 PWs)   bands (ev):

   -14.4419 -14.3208 -12.5755 -12.4746 -10.2692 -10.1968  -2.3369  -1.5309
     0.3403   1.0867   9.3865  10.4421

     occupation numbers 
     1.0000   1.0000   1.0000   1.0000   1.0000   1.0000   1.0000   1.0000
     0.0000   0.0000   0.0000   0.0000

          k = 0.3333 0.5774 0.0000 ( 15606 PWs)   bands (ev):

   -13.2259 -13.2259 -13.1159 -13.1159 -11.1565 -11.0788  -0.9581  -0.9581
    -0.2027  -0.2027   8.9177  10.8385

     occupation numbers 
     1.0000   1.0000   1.0000   1.0000   1.0000   1.0000   1.0000   1.0000
     0.0000   0.0000   0.0000   0.0000

     the Fermi energy is    -0.6118 ev

!    total energy              =     -48.25425444 Ry
     estimated scf accuracy    <       0.00000025 Ry
     smearing contrib. (-TS)   =       0.00000000 Ry
     internal energy E=F+TS    =     -48.25425444 Ry

     The total energy is F=E-TS. E is the sum of the following terms:
     one-electron contribution =    -528.79666374 Ry
     hartree contribution      =     268.07156150 Ry
     xc contribution           =     -17.21497566 Ry
     ewald contribution        =     229.68582346 Ry

     convergence has been achieved in   3 iterations


     -----------------------------------------------
     Non-local corr. energy    =       0.19441983 Ry
     -----------------------------------------------


     Forces acting on atoms (cartesian axes, Ry/au):

     atom    1 type  1   force =    -0.00000000    0.00000000   -0.00185063
     atom    2 type  1   force =    -0.00000000   -0.00000000   -0.00185063
     atom    3 type  1   force =    -0.00000000   -0.00000000    0.00185063
     atom    4 type  1   force =     0.00000000    0.00000000    0.00185063
     The non-local contrib.  to forces
     atom    1 type  1   force =     0.00000000    0.00000000   -0.00221262
     atom    2 type  1   force =    -0.00000000   -0.00000000   -0.00221262
     atom    3 type  1   force =     0.00000000    0.00000000    0.00210722
     atom    4 type  1   force =     0.00000000   -0.00000000    0.00210722
     The ionic contribution  to forces
     atom    1 type  1   force =     0.00000851   -0.00000491  -14.18373926
     atom    2 type  1   force =    -0.00000851    0.00000491  -14.18373926
     atom    3 type  1   force =     0.00000851   -0.00000491   14.18373926
     atom    4 type  1   force =    -0.00000851    0.00000491   14.18373926
     The local contribution  to forces
     atom    1 type  1   force =    -0.00000000    0.00000000   14.18495756
     atom    2 type  1   force =    -0.00000680    0.00000392   14.18495755
     atom    3 type  1   force =     0.00000000    0.00000000  -14.18432348
     atom    4 type  1   force =    -0.00000680    0.00000393  -14.18432347
     The core correction contribution to forces
     atom    1 type  1   force =    -0.00000000    0.00000000    0.00006925
     atom    2 type  1   force =     0.00000053   -0.00000031    0.00006925
     atom    3 type  1   force =    -0.00000000    0.00000000   -0.00006744
     atom    4 type  1   force =     0.00000053   -0.00000031   -0.00006744
     The Hubbard contrib.    to forces
     atom    1 type  1   force =     0.00000000    0.00000000    0.00000000
     atom    2 type  1   force =     0.00000000    0.00000000    0.00000000
     atom    3 type  1   force =     0.00000000    0.00000000    0.00000000
     atom    4 type  1   force =     0.00000000    0.00000000    0.00000000
     The SCF correction term to forces
     atom    1 type  1   force =    -0.00000000    0.00000000   -0.00000000
     atom    2 type  1   force =    -0.00000000    0.00000000   -0.00000000
     atom    3 type  1   force =    -0.00000000    0.00000000    0.00028441
     atom    4 type  1   force =     0.00000000   -0.00000000    0.00028441

     Total force =     0.002617     Total SCF correction =     0.000402
     SCF correction compared to forces is large: reduce conv_thr to get better values


     Computing stress (Cartesian axis) and pressure



     -----------------------------------------------
     Non-local corr. energy    =       0.19441983 Ry
     -----------------------------------------------

          total   stress  (Ry/bohr**3)                   (kbar)     P=        0.94
  -0.00000759   0.00000000   0.00000000           -1.12        0.00        0.00
   0.00000000  -0.00000759   0.00000000            0.00       -1.12        0.00
   0.00000000   0.00000000   0.00003443            0.00        0.00        5.07

     kinetic stress (kbar)   4523.12      0.00      0.00
                                0.00   4523.12      0.00
                                0.00      0.00   4985.62

     local   stress (kbar)-115001.66      0.00      0.00
                                0.00-115001.65     -0.00
                                0.00     -0.00 116342.90

     nonloc. stress (kbar)   -460.18      0.00     -0.00
                                0.00   -460.18      0.00
                               -0.00      0.00   -385.45

     hartree stress (kbar)  55702.35      0.00      0.00
                                0.00  55702.35      0.00
                                0.00      0.00 -55351.98

     exc-cor stress (kbar)   -360.15     -0.00     -0.00
                               -0.00   -360.15      0.00
                               -0.00      0.00   -419.56

     corecor stress (kbar)   -686.10      0.00      0.00
                                0.00   -686.10     -0.00
                                0.00     -0.00   -667.42

     ewald   stress (kbar)  56278.39     -0.01     -0.00
                               -0.01  56278.38      0.00
                               -0.00      0.00 -64530.35

     hubbard stress (kbar)      0.00      0.00      0.00
                                0.00      0.00      0.00
                                0.00      0.00      0.00

     DFT-D   stress (kbar)      0.00      0.00      0.00
                                0.00      0.00      0.00
                                0.00      0.00      0.00

     XDM     stress (kbar)      0.00      0.00      0.00
                                0.00      0.00      0.00
                                0.00      0.00      0.00

     dft-nl  stress (kbar)      3.12      0.00     -0.00
                                0.00      3.12      0.00
                               -0.00      0.00     31.30

     TS-vdW  stress (kbar)      0.00      0.00      0.00
                                0.00      0.00      0.00
                                0.00      0.00      0.00

     MDB     stress (kbar)      0.00      0.00      0.00
                                0.00      0.00      0.00
                                0.00      0.00      0.00

     3D-RISM stress (kbar)      0.00      0.00      0.00
                                0.00      0.00      0.00
                                0.00      0.00      0.00

     Energy error            =      7.9E-06 Ry
     Gradient error          =      1.9E-03 Ry/Bohr

     number of scf cycles    =   2
     number of bfgs steps    =   1

     energy             old  =     -48.2542464965 Ry
     energy             new  =     -48.2542544370 Ry

     CASE: energy            _new < energy            _old


     WARNING: bfgs curvature condition failed, Theta= 0.850
     new trust radius        =       0.0021641446 bohr
     new conv_thr            =       0.0000000100 Ry


ATOMIC_POSITIONS (crystal)
C             0.0000000000        0.0000000000        0.0000000000    0   0   0
C             0.6666670000        0.3333330000        0.0000000000    0   0   0
C            -0.0000000000       -0.0000000000        0.1676686970
C             0.6666670000        0.3333330000        0.1676686970



     Writing config-only to output data dir ./tmp/C2L_AB_PBE_vdW.save/
     NEW-OLD atomic charge density approx. for the potential

     negative rho (up, down):  5.106E-08 0.000E+00


     -----------------------------------------------
     Non-local corr. energy    =       0.19443916 Ry
     -----------------------------------------------


     total cpu time spent up to now is       26.7 secs

     Self-consistent Calculation

     iteration #  1     ecut=   120.00 Ry     beta= 0.70
     Davidson diagonalization with overlap

---- Real-time Memory Report at c_bands before calling an iterative solver
             0 MiB given to the printing process from OS
             0 MiB allocation reported by mallinfo(arena+hblkhd)
             0 MiB available memory on the node where the printing process lives
------------------
     ethr =  1.00E-06,  avg # of iterations =  3.0

     Threshold (ethr) on eigenvalues was too large:
     Diagonalizing with lowered threshold

     Davidson diagonalization with overlap

---- Real-time Memory Report at c_bands before calling an iterative solver
             0 MiB given to the printing process from OS
             0 MiB allocation reported by mallinfo(arena+hblkhd)
             0 MiB available memory on the node where the printing process lives
------------------
     ethr =  2.21E-08,  avg # of iterations =  1.2

     negative rho (up, down):  1.267E-08 0.000E+00


     -----------------------------------------------
     Non-local corr. energy    =       0.19443914 Ry
     -----------------------------------------------


     total cpu time spent up to now is       28.9 secs

     total energy              =     -48.25426129 Ry
     estimated scf accuracy    <       0.00000387 Ry

     iteration #  2     ecut=   120.00 Ry     beta= 0.70
     Davidson diagonalization with overlap

---- Real-time Memory Report at c_bands before calling an iterative solver
             0 MiB given to the printing process from OS
             0 MiB allocation reported by mallinfo(arena+hblkhd)
             0 MiB available memory on the node where the printing process lives
------------------
     ethr =  2.42E-08,  avg # of iterations =  2.0


     -----------------------------------------------
     Non-local corr. energy    =       0.19443696 Ry
     -----------------------------------------------


     total cpu time spent up to now is       30.1 secs

     total energy              =     -48.25426158 Ry
     estimated scf accuracy    <       0.00000610 Ry

     iteration #  3     ecut=   120.00 Ry     beta= 0.70
     Davidson diagonalization with overlap

---- Real-time Memory Report at c_bands before calling an iterative solver
             0 MiB given to the printing process from OS
             0 MiB allocation reported by mallinfo(arena+hblkhd)
             0 MiB available memory on the node where the printing process lives
------------------
     ethr =  2.42E-08,  avg # of iterations =  2.0


     -----------------------------------------------
     Non-local corr. energy    =       0.19443611 Ry
     -----------------------------------------------


     total cpu time spent up to now is       31.3 secs

     total energy              =     -48.25426289 Ry
     estimated scf accuracy    <       0.00000053 Ry

     iteration #  4     ecut=   120.00 Ry     beta= 0.70
     Davidson diagonalization with overlap

---- Real-time Memory Report at c_bands before calling an iterative solver
             0 MiB given to the printing process from OS
             0 MiB allocation reported by mallinfo(arena+hblkhd)
             0 MiB available memory on the node where the printing process lives
------------------
     ethr =  3.29E-09,  avg # of iterations =  2.0


     -----------------------------------------------
     Non-local corr. energy    =       0.19443586 Ry
     -----------------------------------------------


     total cpu time spent up to now is       32.3 secs

     total energy              =     -48.25426301 Ry
     estimated scf accuracy    <       0.00000007 Ry

     iteration #  5     ecut=   120.00 Ry     beta= 0.70
     Davidson diagonalization with overlap

---- Real-time Memory Report at c_bands before calling an iterative solver
             0 MiB given to the printing process from OS
             0 MiB allocation reported by mallinfo(arena+hblkhd)
             0 MiB available memory on the node where the printing process lives
------------------
     ethr =  4.62E-10,  avg # of iterations =  2.0


     -----------------------------------------------
     Non-local corr. energy    =       0.19443580 Ry
     -----------------------------------------------


     total cpu time spent up to now is       33.3 secs

     End of self-consistent calculation

          k = 0.0000 0.0000 0.0000 ( 15581 PWs)   bands (ev):

   -20.1479 -19.9744  -8.7340  -7.6523  -3.6548  -3.6547  -3.6332  -3.6332
     2.5706   2.9998   4.1775   5.2850

     occupation numbers 
     1.0000   1.0000   1.0000   1.0000   1.0000   1.0000   1.0000   1.0000
     0.0000   0.0000   0.0000   0.0000

          k = 0.0000 0.0962 0.0000 ( 15560 PWs)   bands (ev):

   -19.9837 -19.8118  -8.5354  -7.4595  -4.3054  -4.2770  -3.9919  -3.9687
     2.7903   3.2216   4.4035   5.5096

     occupation numbers 
     1.0000   1.0000   1.0000   1.0000   1.0000   1.0000   1.0000   1.0000
     0.0000   0.0000   0.0000   0.0000

          k = 0.0000 0.1925 0.0000 ( 15558 PWs)   bands (ev):

   -19.4929 -19.3260  -7.9446  -6.8869  -5.9438  -5.8996  -4.7824  -4.7559
     3.4493   3.8858   5.0813   6.1823

     occupation numbers 
     1.0000   1.0000   1.0000   1.0000   1.0000   1.0000   1.0000   1.0000
     0.0000   0.0000   0.0000   0.0000

          k = 0.0000 0.2887 0.0000 ( 15612 PWs)   bands (ev):

   -18.6814 -18.5224  -8.0438  -7.9811  -6.9792  -5.9546  -5.6613  -5.6320
     4.5437   4.9808   6.2024   6.3457

     occupation numbers 
     1.0000   1.0000   1.0000   1.0000   1.0000   1.0000   1.0000   1.0000
     0.0000   0.0000   0.0000   0.0000

          k = 0.0000 0.3849 0.0000 ( 15662 PWs)   bands (ev):

   -17.5615 -17.4130 -10.2488 -10.1677  -6.3947  -6.3635  -5.6871  -4.7157
     3.9614   4.6624   6.0629   6.5625

     occupation numbers 
     1.0000   1.0000   1.0000   1.0000   1.0000   1.0000   1.0000   1.0000
     0.0000   0.0000   0.0000   0.0000

          k = 0.0000 0.4811 0.0000 ( 15634 PWs)   bands (ev):

   -16.1651 -16.0289 -12.3500 -12.2518  -6.8678  -6.8357  -4.2249  -3.3381
     1.7495   2.6205   6.8278   7.0592

     occupation numbers 
     1.0000   1.0000   1.0000   1.0000   1.0000   1.0000   1.0000   1.0000
     0.0000   0.0000   0.0000   0.0000

          k = 0.0000-0.5774 0.0000 ( 15610 PWs)   bands (ev):

   -14.9083 -14.7785 -13.8497 -13.7435  -7.0303  -6.9978  -3.3398  -2.5351
     0.5992   1.5789   6.7481   6.9775

     occupation numbers 
     1.0000   1.0000   1.0000   1.0000   1.0000   1.0000   1.0000   1.0000
     0.0000   0.0000   0.0000   0.0000

          k = 0.0833 0.1443 0.0000 ( 15550 PWs)   bands (ev):

   -19.6562 -19.4876  -8.1406  -7.0767  -5.3403  -5.3025  -4.6671  -4.6391
     3.2299   3.6648   4.8556   5.9585

     occupation numbers 
     1.0000   1.0000   1.0000   1.0000   1.0000   1.0000   1.0000   1.0000
     0.0000   0.0000   0.0000   0.0000

          k = 0.0833 0.2406 0.0000 ( 15567 PWs)   bands (ev):

   -19.0051 -18.8429  -7.3616  -7.0514  -6.9986  -6.3230  -5.6635  -5.6296
     4.1079   4.5477   5.7591   6.8540

     occupation numbers 
     1.0000   1.0000   1.0000   1.0000   1.0000   1.0000   1.0000   1.0000
     0.0000   0.0000   0.0000   0.0000

          k = 0.0833 0.3368 0.0000 ( 15618 PWs)   bands (ev):

   -18.0392 -17.8863  -9.1259  -9.0548  -6.5502  -6.5124  -6.2265  -5.2305
     5.0251   5.4226   5.5698   5.9517

     occupation numbers 
     1.0000   1.0000   1.0000   1.0000   1.0000   1.0000   1.0000   1.0000
     0.0000   0.0000   0.0000   0.0000

          k = 0.0833 0.4330 0.0000 ( 15647 PWs)   bands (ev):

   -16.7777 -16.6365 -11.2500 -11.1610  -7.1854  -7.1457  -4.8165  -3.8872
     2.7489   3.5111   7.1309   7.6829

     occupation numbers 
     1.0000   1.0000   1.0000   1.0000   1.0000   1.0000   1.0000   1.0000
     0.0000   0.0000   0.0000   0.0000

          k = 0.0833 0.5292 0.0000 ( 15644 PWs)   bands (ev):

   -15.2997 -15.1700 -13.1903 -13.0863  -7.5141  -7.4735  -3.4599  -2.6291
     0.9099   1.8210   7.4721   7.7149

     occupation numbers 
     1.0000   1.0000   1.0000   1.0000   1.0000   1.0000   1.0000   1.0000
     0.0000   0.0000   0.0000   0.0000

          k = 0.1667 0.2887 0.0000 ( 15608 PWs)   bands (ev):

   -18.1995 -18.0452  -8.3857  -8.3223  -7.0230  -6.9766  -6.4088  -5.4048
     5.2023   5.5060   5.6452   6.0499

     occupation numbers 
     1.0000   1.0000   1.0000   1.0000   1.0000   1.0000   1.0000   1.0000
     0.0000   0.0000   0.0000   0.0000

          k = 0.1667 0.3849 0.0000 ( 15631 PWs)   bands (ev):

   -17.0905 -16.9466 -10.1141 -10.0355  -8.0798  -8.0262  -5.1319  -4.1812
     3.5185   4.1592   6.7211   7.1653

     occupation numbers 
     1.0000   1.0000   1.0000   1.0000   1.0000   1.0000   1.0000   1.0000
     0.0000   0.0000   0.0000   0.0000

          k = 0.1667 0.4811 0.0000 ( 15642 PWs)   bands (ev):

   -15.7142 -15.5825 -12.0243 -11.9293  -8.6574  -8.6007  -3.6678  -2.7971
     1.5501   2.3136   8.6262   9.0674

     occupation numbers 
     1.0000   1.0000   1.0000   1.0000   1.0000   1.0000   1.0000   1.0000
     0.0000   0.0000   0.0000   0.0000

          k = 0.1667 0.5774 0.0000 ( 15640 PWs)   bands (ev):

   -14.4858 -14.3613 -13.4530 -13.3491  -8.8428  -8.7852  -2.7369  -1.9441
     0.4354   1.2947   9.2035   9.5316

     occupation numbers 
     1.0000   1.0000   1.0000   1.0000   1.0000   1.0000   1.0000   1.0000
     0.0000   0.0000   0.0000   0.0000

          k = 0.2500 0.4330 0.0000 ( 15658 PWs)   bands (ev):

   -15.8616 -15.7290 -11.1548 -11.0666  -9.5592  -9.4926  -3.7597  -2.8732
     1.8925   2.5696   8.4210   8.8143

     occupation numbers 
     1.0000   1.0000   1.0000   1.0000   1.0000   1.0000   1.0000   1.0000
     0.0000   0.0000   0.0000   0.0000

          k = 0.2500 0.5292 0.0000 ( 15617 PWs)   bands (ev):

   -14.4406 -14.3199 -12.5742 -12.4737 -10.2680 -10.1959  -2.3350  -1.5307
     0.3422   1.0871   9.3884  10.4420

     occupation numbers 
     1.0000   1.0000   1.0000   1.0000   1.0000   1.0000   1.0000   1.0000
     0.0000   0.0000   0.0000   0.0000

          k = 0.3333 0.5774 0.0000 ( 15606 PWs)   bands (ev):

   -13.2246 -13.2246 -13.1151 -13.1150 -11.1552 -11.0779  -0.9563  -0.9562
    -0.2024  -0.2024   8.9198  10.8381

     occupation numbers 
     1.0000   1.0000   1.0000   1.0000   1.0000   1.0000   1.0000   1.0000
     0.0000   0.0000   0.0000   0.0000

     the Fermi energy is    -0.6116 ev

!    total energy              =     -48.25426303 Ry
     estimated scf accuracy    <          1.6E-09 Ry
     smearing contrib. (-TS)   =       0.00000000 Ry
     internal energy E=F+TS    =     -48.25426303 Ry

     The total energy is F=E-TS. E is the sum of the following terms:
     one-electron contribution =    -528.67139912 Ry
     hartree contribution      =     268.00762238 Ry
     xc contribution           =     -17.21492379 Ry
     ewald contribution        =     229.62443750 Ry

     convergence has been achieved in   5 iterations


     -----------------------------------------------
     Non-local corr. energy    =       0.19443580 Ry
     -----------------------------------------------


     Forces acting on atoms (cartesian axes, Ry/au):

     atom    1 type  1   force =     0.00000000    0.00000000   -0.00194691
     atom    2 type  1   force =     0.00000000    0.00000000   -0.00194691
     atom    3 type  1   force =     0.00000000    0.00000000    0.00194691
     atom    4 type  1   force =     0.00000000    0.00000000    0.00194691
     The non-local contrib.  to forces
     atom    1 type  1   force =     0.00000000    0.00000000   -0.00224009
     atom    2 type  1   force =    -0.00000000   -0.00000000   -0.00224009
     atom    3 type  1   force =     0.00000000    0.00000000    0.00222773
     atom    4 type  1   force =    -0.00000000   -0.00000000    0.00222773
     The ionic contribution  to forces
     atom    1 type  1   force =     0.00000851   -0.00000491  -14.18125885
     atom    2 type  1   force =    -0.00000851    0.00000491  -14.18125885
     atom    3 type  1   force =     0.00000851   -0.00000491   14.18125885
     atom    4 type  1   force =    -0.00000851    0.00000491   14.18125885
     The local contribution  to forces
     atom    1 type  1   force =     0.00000000    0.00000000   14.18153677
     atom    2 type  1   force =    -0.00000680    0.00000393   14.18153676
     atom    3 type  1   force =     0.00000000    0.00000000  -14.18147578
     atom    4 type  1   force =    -0.00000680    0.00000393  -14.18147577
     The core correction contribution to forces
     atom    1 type  1   force =    -0.00000000    0.00000000    0.00006542
     atom    2 type  1   force =     0.00000053   -0.00000031    0.00006542
     atom    3 type  1   force =    -0.00000000    0.00000000   -0.00006375
     atom    4 type  1   force =     0.00000053   -0.00000031   -0.00006375
     The Hubbard contrib.    to forces
     atom    1 type  1   force =     0.00000000    0.00000000    0.00000000
     atom    2 type  1   force =     0.00000000    0.00000000    0.00000000
     atom    3 type  1   force =     0.00000000    0.00000000    0.00000000
     atom    4 type  1   force =     0.00000000    0.00000000    0.00000000
     The SCF correction term to forces
     atom    1 type  1   force =    -0.00000000    0.00000000   -0.00000000
     atom    2 type  1   force =     0.00000000   -0.00000000   -0.00000000
     atom    3 type  1   force =    -0.00000000    0.00000000    0.00000471
     atom    4 type  1   force =    -0.00000000    0.00000000    0.00000471

     Total force =     0.002753     Total SCF correction =     0.000007


     Computing stress (Cartesian axis) and pressure



     -----------------------------------------------
     Non-local corr. energy    =       0.19443580 Ry
     -----------------------------------------------

          total   stress  (Ry/bohr**3)                   (kbar)     P=        0.94
  -0.00000752  -0.00000000   0.00000000           -1.11       -0.00        0.00
  -0.00000000  -0.00000752   0.00000000           -0.00       -1.11        0.00
   0.00000000   0.00000000   0.00003414            0.00        0.00        5.02

     kinetic stress (kbar)   4523.13      0.00      0.00
                                0.00   4523.13      0.00
                                0.00      0.00   4985.57

     local   stress (kbar)-114975.46      0.00      0.00
                                0.00-114975.46     -0.00
                                0.00     -0.00 116316.72

     nonloc. stress (kbar)   -460.19     -0.00     -0.00
                               -0.00   -460.19      0.00
                               -0.00      0.00   -385.45

     hartree stress (kbar)  55688.99      0.00     -0.00
                                0.00  55688.99      0.00
                               -0.00      0.00 -55338.62

     exc-cor stress (kbar)   -360.15     -0.00     -0.00
                               -0.00   -360.15      0.00
                               -0.00      0.00   -419.56

     corecor stress (kbar)   -686.10      0.00      0.00
                                0.00   -686.10     -0.00
                                0.00     -0.00   -667.41

     ewald   stress (kbar)  56265.56     -0.01      0.00
                               -0.01  56265.55      0.00
                                0.00      0.00 -64517.53

     hubbard stress (kbar)      0.00      0.00      0.00
                                0.00      0.00      0.00
                                0.00      0.00      0.00

     DFT-D   stress (kbar)      0.00      0.00      0.00
                                0.00      0.00      0.00
                                0.00      0.00      0.00

     XDM     stress (kbar)      0.00      0.00      0.00
                                0.00      0.00      0.00
                                0.00      0.00      0.00

     dft-nl  stress (kbar)      3.12      0.00      0.00
                                0.00      3.12     -0.00
                                0.00     -0.00     31.31

     TS-vdW  stress (kbar)      0.00      0.00      0.00
                                0.00      0.00      0.00
                                0.00      0.00      0.00

     MDB     stress (kbar)      0.00      0.00      0.00
                                0.00      0.00      0.00
                                0.00      0.00      0.00

     3D-RISM stress (kbar)      0.00      0.00      0.00
                                0.00      0.00      0.00
                                0.00      0.00      0.00

     Energy error            =      8.6E-06 Ry
     Gradient error          =      1.9E-03 Ry/Bohr

     number of scf cycles    =   3
     number of bfgs steps    =   2

     energy             old  =     -48.2542544370 Ry
     energy             new  =     -48.2542630296 Ry

     CASE: energy            _new < energy            _old


     WARNING: bfgs curvature condition failed, Theta= 0.400
     new trust radius        =       0.0032462169 bohr
     new conv_thr            =       0.0000000100 Ry


ATOMIC_POSITIONS (crystal)
C             0.0000000000        0.0000000000        0.0000000000    0   0   0
C             0.6666670000        0.3333330000        0.0000000000    0   0   0
C            -0.0000000000       -0.0000000000        0.1677556732
C             0.6666670000        0.3333330000        0.1677556732



     Writing config-only to output data dir ./tmp/C2L_AB_PBE_vdW.save/
     NEW-OLD atomic charge density approx. for the potential

     negative rho (up, down):  8.083E-08 0.000E+00


     -----------------------------------------------
     Non-local corr. energy    =       0.19446478 Ry
     -----------------------------------------------


     total cpu time spent up to now is       35.3 secs

     Self-consistent Calculation

     iteration #  1     ecut=   120.00 Ry     beta= 0.70
     Davidson diagonalization with overlap

---- Real-time Memory Report at c_bands before calling an iterative solver
             0 MiB given to the printing process from OS
             0 MiB allocation reported by mallinfo(arena+hblkhd)
             0 MiB available memory on the node where the printing process lives
------------------
     ethr =  1.00E-06,  avg # of iterations =  3.0

     Threshold (ethr) on eigenvalues was too large:
     Diagonalizing with lowered threshold

     Davidson diagonalization with overlap

---- Real-time Memory Report at c_bands before calling an iterative solver
             0 MiB given to the printing process from OS
             0 MiB allocation reported by mallinfo(arena+hblkhd)
             0 MiB available memory on the node where the printing process lives
------------------
     ethr =  2.07E-08,  avg # of iterations =  1.6

     negative rho (up, down):  2.040E-08 0.000E+00


     -----------------------------------------------
     Non-local corr. energy    =       0.19446166 Ry
     -----------------------------------------------


     total cpu time spent up to now is       37.5 secs

     total energy              =     -48.25427424 Ry
     estimated scf accuracy    <       0.00000399 Ry

     iteration #  2     ecut=   120.00 Ry     beta= 0.70
     Davidson diagonalization with overlap

---- Real-time Memory Report at c_bands before calling an iterative solver
             0 MiB given to the printing process from OS
             0 MiB allocation reported by mallinfo(arena+hblkhd)
             0 MiB available memory on the node where the printing process lives
------------------
     ethr =  2.49E-08,  avg # of iterations =  2.0

     negative rho (up, down):  1.197E-08 0.000E+00


     -----------------------------------------------
     Non-local corr. energy    =       0.19445922 Ry
     -----------------------------------------------


     total cpu time spent up to now is       38.6 secs

     total energy              =     -48.25427452 Ry
     estimated scf accuracy    <       0.00000345 Ry

     iteration #  3     ecut=   120.00 Ry     beta= 0.70
     Davidson diagonalization with overlap

---- Real-time Memory Report at c_bands before calling an iterative solver
             0 MiB given to the printing process from OS
             0 MiB allocation reported by mallinfo(arena+hblkhd)
             0 MiB available memory on the node where the printing process lives
------------------
     ethr =  2.16E-08,  avg # of iterations =  2.0


     -----------------------------------------------
     Non-local corr. energy    =       0.19445837 Ry
     -----------------------------------------------


     total cpu time spent up to now is       39.7 secs

     total energy              =     -48.25427534 Ry
     estimated scf accuracy    <       0.00000069 Ry

     iteration #  4     ecut=   120.00 Ry     beta= 0.70
     Davidson diagonalization with overlap

---- Real-time Memory Report at c_bands before calling an iterative solver
             0 MiB given to the printing process from OS
             0 MiB allocation reported by mallinfo(arena+hblkhd)
             0 MiB available memory on the node where the printing process lives
------------------
     ethr =  4.34E-09,  avg # of iterations =  1.9


     -----------------------------------------------
     Non-local corr. energy    =       0.19445833 Ry
     -----------------------------------------------


     total cpu time spent up to now is       40.8 secs

     total energy              =     -48.25427549 Ry
     estimated scf accuracy    <       0.00000016 Ry

     iteration #  5     ecut=   120.00 Ry     beta= 0.70
     Davidson diagonalization with overlap

---- Real-time Memory Report at c_bands before calling an iterative solver
             0 MiB given to the printing process from OS
             0 MiB allocation reported by mallinfo(arena+hblkhd)
             0 MiB available memory on the node where the printing process lives
------------------
     ethr =  9.74E-10,  avg # of iterations =  2.0


     -----------------------------------------------
     Non-local corr. energy    =       0.19445812 Ry
     -----------------------------------------------


     total cpu time spent up to now is       41.8 secs

     End of self-consistent calculation

          k = 0.0000 0.0000 0.0000 ( 15581 PWs)   bands (ev):

   -20.1475 -19.9746  -8.7326  -7.6536  -3.6547  -3.6546  -3.6332  -3.6332
     2.5702   2.9997   4.1768   5.2851

     occupation numbers 
     1.0000   1.0000   1.0000   1.0000   1.0000   1.0000   1.0000   1.0000
     0.0000   0.0000   0.0000   0.0000

          k = 0.0000 0.0962 0.0000 ( 15560 PWs)   bands (ev):

   -19.9833 -19.8121  -8.5340  -7.4609  -4.3053  -4.2771  -3.9918  -3.9687
     2.7900   3.2216   4.4028   5.5096

     occupation numbers 
     1.0000   1.0000   1.0000   1.0000   1.0000   1.0000   1.0000   1.0000
     0.0000   0.0000   0.0000   0.0000

          k = 0.0000 0.1925 0.0000 ( 15558 PWs)   bands (ev):

   -19.4925 -19.3262  -7.9432  -6.8882  -5.9436  -5.8997  -4.7823  -4.7559
     3.4489   3.8857   5.0807   6.1823

     occupation numbers 
     1.0000   1.0000   1.0000   1.0000   1.0000   1.0000   1.0000   1.0000
     0.0000   0.0000   0.0000   0.0000

          k = 0.0000 0.2887 0.0000 ( 15612 PWs)   bands (ev):

   -18.6810 -18.5226  -8.0436  -7.9812  -6.9779  -5.9559  -5.6612  -5.6320
     4.5433   4.9807   6.2017   6.3465

     occupation numbers 
     1.0000   1.0000   1.0000   1.0000   1.0000   1.0000   1.0000   1.0000
     0.0000   0.0000   0.0000   0.0000

          k = 0.0000 0.3849 0.0000 ( 15662 PWs)   bands (ev):

   -17.5611 -17.4132 -10.2486 -10.1678  -6.3945  -6.3636  -5.6858  -4.7169
     3.9624   4.6616   6.0624   6.5623

     occupation numbers 
     1.0000   1.0000   1.0000   1.0000   1.0000   1.0000   1.0000   1.0000
     0.0000   0.0000   0.0000   0.0000

          k = 0.0000 0.4811 0.0000 ( 15634 PWs)   bands (ev):

   -16.1647 -16.0291 -12.3497 -12.2519  -6.8677  -6.8357  -4.2236  -3.3392
     1.7507   2.6195   6.8283   7.0589

     occupation numbers 
     1.0000   1.0000   1.0000   1.0000   1.0000   1.0000   1.0000   1.0000
     0.0000   0.0000   0.0000   0.0000

          k = 0.0000-0.5774 0.0000 ( 15610 PWs)   bands (ev):

   -14.9079 -14.7786 -13.8494 -13.7436  -7.0302  -6.9978  -3.3386  -2.5361
     0.6005   1.5778   6.7486   6.9772

     occupation numbers 
     1.0000   1.0000   1.0000   1.0000   1.0000   1.0000   1.0000   1.0000
     0.0000   0.0000   0.0000   0.0000

          k = 0.0833 0.1443 0.0000 ( 15550 PWs)   bands (ev):

   -19.6558 -19.4879  -8.1392  -7.0780  -5.3401  -5.3025  -4.6670  -4.6391
     3.2296   3.6647   4.8549   5.9586

     occupation numbers 
     1.0000   1.0000   1.0000   1.0000   1.0000   1.0000   1.0000   1.0000
     0.0000   0.0000   0.0000   0.0000

          k = 0.0833 0.2406 0.0000 ( 15567 PWs)   bands (ev):

   -19.0047 -18.8432  -7.3603  -7.0512  -6.9986  -6.3243  -5.6634  -5.6296
     4.1075   4.5476   5.7584   6.8539

     occupation numbers 
     1.0000   1.0000   1.0000   1.0000   1.0000   1.0000   1.0000   1.0000
     0.0000   0.0000   0.0000   0.0000

          k = 0.0833 0.3368 0.0000 ( 15618 PWs)   bands (ev):

   -18.0388 -17.8865  -9.1257  -9.0549  -6.5500  -6.5125  -6.2251  -5.2318
     5.0261   5.4222   5.5692   5.9514

     occupation numbers 
     1.0000   1.0000   1.0000   1.0000   1.0000   1.0000   1.0000   1.0000
     0.0000   0.0000   0.0000   0.0000

          k = 0.0833 0.4330 0.0000 ( 15647 PWs)   bands (ev):

   -16.7773 -16.6367 -11.2498 -11.1611  -7.1852  -7.1457  -4.8152  -3.8884
     2.7500   3.5101   7.1305   7.6834

     occupation numbers 
     1.0000   1.0000   1.0000   1.0000   1.0000   1.0000   1.0000   1.0000
     0.0000   0.0000   0.0000   0.0000

          k = 0.0833 0.5292 0.0000 ( 15644 PWs)   bands (ev):

   -15.2993 -15.1702 -13.1900 -13.0864  -7.5140  -7.4736  -3.4587  -2.6302
     0.9112   1.8200   7.4726   7.7146

     occupation numbers 
     1.0000   1.0000   1.0000   1.0000   1.0000   1.0000   1.0000   1.0000
     0.0000   0.0000   0.0000   0.0000

          k = 0.1667 0.2887 0.0000 ( 15608 PWs)   bands (ev):

   -18.1991 -18.0454  -8.3855  -8.3224  -7.0229  -6.9766  -6.4075  -5.4061
     5.2019   5.5070   5.6451   6.0492

     occupation numbers 
     1.0000   1.0000   1.0000   1.0000   1.0000   1.0000   1.0000   1.0000
     0.0000   0.0000   0.0000   0.0000

          k = 0.1667 0.3849 0.0000 ( 15631 PWs)   bands (ev):

[...]
             0 MiB given to the printing process from OS
             0 MiB allocation reported by mallinfo(arena+hblkhd)
             0 MiB available memory on the node where the printing process lives
------------------
     ethr =  1.92E-05,  avg # of iterations =  4.1

     negative rho (up, down):  2.306E-07 0.000E+00


     -----------------------------------------------
     Non-local corr. energy    =       0.19658327 Ry
     -----------------------------------------------


     total cpu time spent up to now is      129.8 secs

     total energy              =     -48.25464440 Ry
     estimated scf accuracy    <       0.00093804 Ry

     iteration #  4     ecut=   120.00 Ry     beta= 0.70
     Davidson diagonalization with overlap

---- Real-time Memory Report at c_bands before calling an iterative solver
             0 MiB given to the printing process from OS
             0 MiB allocation reported by mallinfo(arena+hblkhd)
             0 MiB available memory on the node where the printing process lives
------------------
     ethr =  5.86E-06,  avg # of iterations =  3.1

     negative rho (up, down):  7.045E-08 0.000E+00


     -----------------------------------------------
     Non-local corr. energy    =       0.19658007 Ry
     -----------------------------------------------


     total cpu time spent up to now is      131.0 secs

     total energy              =     -48.25483384 Ry
     estimated scf accuracy    <       0.00017891 Ry

     iteration #  5     ecut=   120.00 Ry     beta= 0.70
     Davidson diagonalization with overlap

---- Real-time Memory Report at c_bands before calling an iterative solver
             0 MiB given to the printing process from OS
             0 MiB allocation reported by mallinfo(arena+hblkhd)
             0 MiB available memory on the node where the printing process lives
------------------
     ethr =  1.12E-06,  avg # of iterations =  2.8

     negative rho (up, down):  1.670E-08 0.000E+00


     -----------------------------------------------
     Non-local corr. energy    =       0.19657519 Ry
     -----------------------------------------------


     total cpu time spent up to now is      132.1 secs

     total energy              =     -48.25486738 Ry
     estimated scf accuracy    <       0.00000378 Ry

     iteration #  6     ecut=   120.00 Ry     beta= 0.70
     Davidson diagonalization with overlap

---- Real-time Memory Report at c_bands before calling an iterative solver
             0 MiB given to the printing process from OS
             0 MiB allocation reported by mallinfo(arena+hblkhd)
             0 MiB available memory on the node where the printing process lives
------------------
     ethr =  2.36E-08,  avg # of iterations =  2.2


     -----------------------------------------------
     Non-local corr. energy    =       0.19657453 Ry
     -----------------------------------------------


     total cpu time spent up to now is      133.3 secs

     total energy              =     -48.25486832 Ry
     estimated scf accuracy    <       0.00000006 Ry

     iteration #  7     ecut=   120.00 Ry     beta= 0.70
     Davidson diagonalization with overlap

---- Real-time Memory Report at c_bands before calling an iterative solver
             0 MiB given to the printing process from OS
             0 MiB allocation reported by mallinfo(arena+hblkhd)
             0 MiB available memory on the node where the printing process lives
------------------
     ethr =  3.88E-10,  avg # of iterations =  2.8


     -----------------------------------------------
     Non-local corr. energy    =       0.19657490 Ry
     -----------------------------------------------


     total cpu time spent up to now is      134.6 secs

     End of self-consistent calculation

          k = 0.0000 0.0000 0.0000 ( 15581 PWs)   bands (ev):

   -20.1051 -19.9893  -8.6041  -7.7662  -3.6413  -3.6412  -3.6288  -3.6287
     2.5228   2.9789   4.1496   5.3086

     occupation numbers 
     1.0000   1.0000   1.0000   1.0000   1.0000   1.0000   1.0000   1.0000
     0.0000   0.0000   0.0000   0.0000

          k = 0.0000 0.0962 0.0000 ( 15560 PWs)   bands (ev):

   -19.9412 -19.8265  -8.4058  -7.5729  -4.2904  -4.2735  -3.9780  -3.9644
     2.7423   3.2007   4.3749   5.5331

     occupation numbers 
     1.0000   1.0000   1.0000   1.0000   1.0000   1.0000   1.0000   1.0000
     0.0000   0.0000   0.0000   0.0000

          k = 0.0000 0.1925 0.0000 ( 15558 PWs)   bands (ev):

   -19.4512 -19.3401  -7.8157  -6.9984  -5.9254  -5.8983  -4.7677  -4.7520
     3.4004   3.8649   5.0505   6.2053

     occupation numbers 
     1.0000   1.0000   1.0000   1.0000   1.0000   1.0000   1.0000   1.0000
     0.0000   0.0000   0.0000   0.0000

          k = 0.0000 0.2887 0.0000 ( 15612 PWs)   bands (ev):

   -18.6410 -18.5356  -8.0214  -7.9822  -6.8520  -6.0629  -5.6459  -5.6284
     4.4939   4.9603   6.1623   6.4211

     occupation numbers 
     1.0000   1.0000   1.0000   1.0000   1.0000   1.0000   1.0000   1.0000
     0.0000   0.0000   0.0000   0.0000

          k = 0.0000 0.3849 0.0000 ( 15662 PWs)   bands (ev):

   -17.5230 -17.4250 -10.2228 -10.1711  -6.3789  -6.3602  -5.5624  -4.8191
     4.0624   4.5916   6.0111   6.5385

     occupation numbers 
     1.0000   1.0000   1.0000   1.0000   1.0000   1.0000   1.0000   1.0000
     0.0000   0.0000   0.0000   0.0000

          k = 0.0000 0.4811 0.0000 ( 15634 PWs)   bands (ev):

   -16.1288 -16.0395 -12.3207 -12.2573  -6.8518  -6.8324  -4.1045  -3.4340
     1.8635   2.5336   6.8772   7.0382

     occupation numbers 
     1.0000   1.0000   1.0000   1.0000   1.0000   1.0000   1.0000   1.0000
     0.0000   0.0000   0.0000   0.0000

          k = 0.0000-0.5774 0.0000 ( 15610 PWs)   bands (ev):

   -14.8731 -14.7888 -13.8187 -13.7495  -7.0141  -6.9946  -3.2237  -2.6245
     0.7202   1.4829   6.7996   6.9563

     occupation numbers 
     1.0000   1.0000   1.0000   1.0000   1.0000   1.0000   1.0000   1.0000
     0.0000   0.0000   0.0000   0.0000

          k = 0.0833 0.1443 0.0000 ( 15550 PWs)   bands (ev):

   -19.6142 -19.5019  -8.0115  -7.1889  -5.3232  -5.3003  -4.6521  -4.6354
     3.1814   3.6439   4.8255   5.9819

     occupation numbers 
     1.0000   1.0000   1.0000   1.0000   1.0000   1.0000   1.0000   1.0000
     0.0000   0.0000   0.0000   0.0000

          k = 0.0833 0.2406 0.0000 ( 15567 PWs)   bands (ev):

   -18.9642 -18.8565  -7.2336  -7.0311  -6.9985  -6.4327  -5.6472  -5.6266
     4.0583   4.5270   5.7255   6.8760

     occupation numbers 
     1.0000   1.0000   1.0000   1.0000   1.0000   1.0000   1.0000   1.0000
     0.0000   0.0000   0.0000   0.0000

          k = 0.0833 0.3368 0.0000 ( 15618 PWs)   bands (ev):

   -17.9999 -17.8988  -9.1019  -9.0570  -6.5329  -6.5099  -6.1007  -5.3361
     5.1195   5.3703   5.5169   5.9196

     occupation numbers 
     1.0000   1.0000   1.0000   1.0000   1.0000   1.0000   1.0000   1.0000
     0.0000   0.0000   0.0000   0.0000

          k = 0.0833 0.4330 0.0000 ( 15647 PWs)   bands (ev):

   -16.7405 -16.6476 -11.2224 -11.1654  -7.1677  -7.1434  -4.6940  -3.9867
     2.8562   3.4331   7.0825   7.6013

     occupation numbers 
     1.0000   1.0000   1.0000   1.0000   1.0000   1.0000   1.0000   1.0000
     0.0000   0.0000   0.0000   0.0000

          k = 0.0833 0.5292 0.0000 ( 15644 PWs)   bands (ev):

   -15.2645 -15.1800 -13.1598 -13.0924  -7.4963  -7.4714  -3.3425  -2.7204
     1.0274   1.7300   7.5237   7.6934

     occupation numbers 
     1.0000   1.0000   1.0000   1.0000   1.0000   1.0000   1.0000   1.0000
     0.0000   0.0000   0.0000   0.0000

          k = 0.1667 0.2887 0.0000 ( 15608 PWs)   bands (ev):

   -18.1600 -18.0578  -8.3633  -8.3237  -7.0038  -6.9749  -6.2827  -5.5112
     5.1515   5.5993   5.6249   5.9903

     occupation numbers 
     1.0000   1.0000   1.0000   1.0000   1.0000   1.0000   1.0000   1.0000
     0.0000   0.0000   0.0000   0.0000

          k = 0.1667 0.3849 0.0000 ( 15631 PWs)   bands (ev):

   -17.0528 -16.9581 -10.0886 -10.0389  -8.0592  -8.0255  -5.0083  -4.2825
     3.6200   4.0898   6.6689   7.1455

     occupation numbers 
     1.0000   1.0000   1.0000   1.0000   1.0000   1.0000   1.0000   1.0000
     0.0000   0.0000   0.0000   0.0000

          k = 0.1667 0.4811 0.0000 ( 15642 PWs)   bands (ev):

   -15.6787 -15.5926 -11.9956 -11.9345  -8.6361  -8.6004  -3.5484  -2.8914
     1.6602   2.2331   8.5764   9.0474

     occupation numbers 
     1.0000   1.0000   1.0000   1.0000   1.0000   1.0000   1.0000   1.0000
     0.0000   0.0000   0.0000   0.0000

          k = 0.1667 0.5774 0.0000 ( 15640 PWs)   bands (ev):

   -14.4516 -14.3710 -13.4225 -13.3550  -8.8214  -8.7851  -2.6216  -2.0320
     0.5515   1.2064   9.2654   9.5083

     occupation numbers 
     1.0000   1.0000   1.0000   1.0000   1.0000   1.0000   1.0000   1.0000
     0.0000   0.0000   0.0000   0.0000

          k = 0.2500 0.4330 0.0000 ( 15658 PWs)   bands (ev):

   -15.8259 -15.7391 -11.1274 -11.0714  -9.5359  -9.4932  -3.6395  -2.9686
     1.9984   2.4950   8.3706   8.7955

     occupation numbers 
     1.0000   1.0000   1.0000   1.0000   1.0000   1.0000   1.0000   1.0000
     0.0000   0.0000   0.0000   0.0000

          k = 0.2500 0.5292 0.0000 ( 15617 PWs)   bands (ev):

   -14.4071 -14.3288 -12.5445 -12.4799 -10.2436 -10.1973  -2.2193  -1.6190
     0.4530   1.0059   9.4689  10.3759

     occupation numbers 
     1.0000   1.0000   1.0000   1.0000   1.0000   1.0000   1.0000   1.0000
     0.0000   0.0000   0.0000   0.0000

          k = 0.3333 0.5774 0.0000 ( 15606 PWs)   bands (ev):

   -13.1932 -13.1932 -13.1227 -13.1227 -11.1297 -11.0794  -0.8439  -0.8439
    -0.2858  -0.2858   9.0314  10.7569

     occupation numbers 
     1.0000   1.0000   1.0000   1.0000   1.0000   1.0000   1.0000   1.0000
     0.0000   0.0000   0.0000   0.0000

     the Fermi energy is    -0.5255 ev

!    total energy              =     -48.25486833 Ry
     estimated scf accuracy    <          5.2E-09 Ry
     smearing contrib. (-TS)   =       0.00000000 Ry
     internal energy E=F+TS    =     -48.25486833 Ry

     The total energy is F=E-TS. E is the sum of the following terms:
     one-electron contribution =    -510.11960858 Ry
     hartree contribution      =     258.73443366 Ry
     xc contribution           =     -17.20864934 Ry
     ewald contribution        =     220.33895593 Ry

     convergence has been achieved in   7 iterations


     -----------------------------------------------
     Non-local corr. energy    =       0.19657490 Ry
     -----------------------------------------------


     Forces acting on atoms (cartesian axes, Ry/au):

     atom    1 type  1   force =     0.00000000    0.00000000   -0.00007776
     atom    2 type  1   force =     0.00000000   -0.00000000   -0.00007776
     atom    3 type  1   force =    -0.00000000   -0.00000000    0.00007776
     atom    4 type  1   force =     0.00000000   -0.00000000    0.00007776
     The non-local contrib.  to forces
     atom    1 type  1   force =     0.00000000    0.00000000   -0.00045456
     atom    2 type  1   force =     0.00000000   -0.00000000   -0.00045456
     atom    3 type  1   force =    -0.00000000    0.00000000    0.00043732
     atom    4 type  1   force =     0.00000000    0.00000000    0.00043732
     The ionic contribution  to forces
     atom    1 type  1   force =     0.00000851   -0.00000491  -13.80114943
     atom    2 type  1   force =    -0.00000851    0.00000491  -13.80114943
     atom    3 type  1   force =     0.00000851   -0.00000491   13.80114943
     atom    4 type  1   force =    -0.00000851    0.00000491   13.80114943
     The local contribution  to forces
     atom    1 type  1   force =    -0.00000000    0.00000000   13.80141004
     atom    2 type  1   force =    -0.00000679    0.00000392   13.80141003
     atom    3 type  1   force =    -0.00000000    0.00000000  -13.80163522
     atom    4 type  1   force =    -0.00000679    0.00000392  -13.80163522
     The core correction contribution to forces
     atom    1 type  1   force =    -0.00000000    0.00000000   -0.00003874
     atom    2 type  1   force =     0.00000053   -0.00000031   -0.00003874
     atom    3 type  1   force =    -0.00000000    0.00000000    0.00003817
     atom    4 type  1   force =     0.00000053   -0.00000031    0.00003817
     The Hubbard contrib.    to forces
     atom    1 type  1   force =     0.00000000    0.00000000    0.00000000
     atom    2 type  1   force =     0.00000000    0.00000000    0.00000000
     atom    3 type  1   force =     0.00000000    0.00000000    0.00000000
     atom    4 type  1   force =     0.00000000    0.00000000    0.00000000
     The SCF correction term to forces
     atom    1 type  1   force =    -0.00000000    0.00000000    0.00000000
     atom    2 type  1   force =    -0.00000000    0.00000000    0.00000000
     atom    3 type  1   force =    -0.00000000    0.00000000    0.00008471
     atom    4 type  1   force =    -0.00000000    0.00000000    0.00008471

     Total force =     0.000110     Total SCF correction =     0.000120
     SCF correction compared to forces is large: reduce conv_thr to get better values


     Computing stress (Cartesian axis) and pressure



     -----------------------------------------------
     Non-local corr. energy    =       0.19657490 Ry
     -----------------------------------------------

          total   stress  (Ry/bohr**3)                   (kbar)     P=       -0.17
  -0.00000241   0.00000000   0.00000000           -0.35        0.00        0.00
   0.00000000  -0.00000241   0.00000000            0.00       -0.35        0.00
   0.00000000   0.00000000   0.00000135            0.00        0.00        0.20

     kinetic stress (kbar)   4523.10     -0.00      0.00
                               -0.00   4523.10      0.00
                                0.00      0.00   4979.94

     local   stress (kbar)-111096.19      0.00     -0.00
                                0.00-111096.18      0.00
                               -0.00      0.00 112439.38

     nonloc. stress (kbar)   -460.18      0.00      0.00
                                0.00   -460.18      0.00
                                0.00      0.00   -384.70

     hartree stress (kbar)  53750.72      0.00      0.00
                                0.00  53750.72      0.00
                                0.00      0.00 -53401.07

     exc-cor stress (kbar)   -359.78     -0.00     -0.00
                               -0.00   -359.78      0.00
                               -0.00      0.00   -419.88

     corecor stress (kbar)   -686.12      0.00      0.00
                                0.00   -686.12     -0.00
                                0.00     -0.00   -667.35

     ewald   stress (kbar)  54325.03     -0.01     -0.00
                               -0.01  54325.02      0.00
                               -0.00      0.00 -62578.04

     hubbard stress (kbar)      0.00      0.00      0.00
                                0.00      0.00      0.00
                                0.00      0.00      0.00

     DFT-D   stress (kbar)      0.00      0.00      0.00
                                0.00      0.00      0.00
                                0.00      0.00      0.00

     XDM     stress (kbar)      0.00      0.00      0.00
                                0.00      0.00      0.00
                                0.00      0.00      0.00

     dft-nl  stress (kbar)      3.07      0.00     -0.00
                                0.00      3.07      0.00
                               -0.00      0.00     31.91

     TS-vdW  stress (kbar)      0.00      0.00      0.00
                                0.00      0.00      0.00
                                0.00      0.00      0.00

     MDB     stress (kbar)      0.00      0.00      0.00
                                0.00      0.00      0.00
                                0.00      0.00      0.00

     3D-RISM stress (kbar)      0.00      0.00      0.00
                                0.00      0.00      0.00
                                0.00      0.00      0.00

     Energy error            =      4.9E-05 Ry
     Gradient error          =      7.8E-05 Ry/Bohr

     bfgs converged in  13 scf cycles and  12 bfgs steps
     (criteria: energy <  1.0E-04 Ry, force <  1.0E-03 Ry/Bohr)

     End of BFGS Geometry Optimization

     Final energy             =     -48.2548683334 Ry

     File ./tmp/C2L_AB_PBE_vdW.bfgs deleted, as requested
Begin final coordinates

ATOMIC_POSITIONS (crystal)
C             0.0000000000        0.0000000000        0.0000000000    0   0   0
C             0.6666670000        0.3333330000        0.0000000000    0   0   0
C            -0.0000000000       -0.0000000000        0.1765595486
C             0.6666670000        0.3333330000        0.1765595486
End final coordinates



     Writing all to output data dir ./tmp/C2L_AB_PBE_vdW.save/

     init_run     :      9.16s CPU      9.21s WALL (       1 calls)
     electrons    :    102.21s CPU    101.12s WALL (      13 calls)
     update_pot   :      3.34s CPU      3.68s WALL (      12 calls)
     forces       :      4.63s CPU      4.96s WALL (      13 calls)
     stress       :     16.22s CPU     17.30s WALL (      13 calls)

     Called by init_run:
     wfcinit      :      0.40s CPU      0.40s WALL (       1 calls)
     wfcinit:atom :      0.01s CPU      0.01s WALL (      19 calls)
     wfcinit:wfcr :      0.36s CPU      0.36s WALL (      19 calls)
     potinit      :      8.25s CPU      8.30s WALL (       1 calls)
     hinit0       :      0.32s CPU      0.32s WALL (       1 calls)

     Called by electrons:
     c_bands      :     79.02s CPU     75.73s WALL (      79 calls)
     sum_band     :     10.94s CPU     11.21s WALL (      79 calls)
     v_of_rho     :     21.82s CPU     23.70s WALL (      88 calls)
     v_h          :      0.17s CPU      0.17s WALL (      88 calls)
     v_xc         :     25.72s CPU     28.27s WALL (     114 calls)
     mix_rho      :      0.35s CPU      0.60s WALL (      79 calls)
     vdW_kernel   :      8.08s CPU      8.10s WALL (       1 calls)

     Called by c_bands:
     init_us_2    :      2.00s CPU      2.04s WALL (    3515 calls)
     init_us_2:cp :      1.99s CPU      2.02s WALL (    3515 calls)
     cegterg      :     75.97s CPU     72.56s WALL (    1501 calls)

     Called by sum_band:
     sum_band:wei :      0.01s CPU      0.01s WALL (      79 calls)
     sum_band:loo :     10.58s CPU     10.84s WALL (      79 calls)
     sum_band:buf :      0.39s CPU      0.40s WALL (    1501 calls)
     sum_band:ini :      0.94s CPU      0.96s WALL (    1501 calls)

     Called by *egterg:
     cdiaghg      :      1.06s CPU      1.09s WALL (    5798 calls)
     cegterg:over :      3.83s CPU      3.97s WALL (    4601 calls)
     cegterg:upda :      3.11s CPU      2.56s WALL (    4601 calls)
     cegterg:last :      4.99s CPU      3.27s WALL (    3446 calls)
     h_psi        :     60.81s CPU     59.18s WALL (    6121 calls)
     g_psi        :      0.38s CPU      0.46s WALL (    4601 calls)

     Called by h_psi:
     h_psi:calbec :      5.02s CPU      4.60s WALL (    6121 calls)
     vloc_psi     :     48.67s CPU     49.94s WALL (    6121 calls)
     add_vuspsi   :      6.52s CPU      4.00s WALL (    6121 calls)

     General routines
     calbec       :      6.19s CPU      5.79s WALL (    7356 calls)
     fft          :      7.82s CPU      8.03s WALL (    7480 calls)
     ffts         :      0.08s CPU      0.08s WALL (      79 calls)
     fftw         :     48.68s CPU     49.81s WALL (  115276 calls)

     Parallel routines

     PWSCF        :   2m15.75s CPU   2m16.52s WALL


   This run was terminated on:  16:58:31  15Apr2024            

=------------------------------------------------------------------------------=
   JOB DONE.
=------------------------------------------------------------------------------=
