
     Program PWSCF v.7.2 starts on 18Apr2024 at 15:19:26 

     This program is part of the open-source Quantum ESPRESSO suite
     for quantum simulation of materials; please cite
         "P. Giannozzi et al., J. Phys.:Condens. Matter 21 395502 (2009);
         "P. Giannozzi et al., J. Phys.:Condens. Matter 29 465901 (2017);
         "P. Giannozzi et al., J. Chem. Phys. 152 154105 (2020);
          URL http://www.quantum-espresso.org", 
     in publications or presentations arising from this work. More details at
     http://www.quantum-espresso.org/quote

     Parallel version (MPI & OpenMP), running on       8 processor cores
     Number of MPI processes:                 8
     Threads/MPI process:                     1

     MPI processes distributed on     1 nodes
     0 MiB available memory on the printing compute node when the environment starts

     Waiting for input...
     Reading input from standard input
Warning: card &CELL ignored
Warning: card CELL_DOFREE = 'ALL' ignored
Warning: card / ignored

     Current dimensions of program PWSCF are:
     Max number of different atomic species (ntypx) = 10
     Max number of k-points (npk) =  40000
     Max angular momentum in pseudopotentials (lmaxx) =  4

     IMPORTANT: XC functional enforced from input :
     Exchange-correlation= VDW-DF2-B86R
                           (   1   4  26   0   2   0   0)
     Any further DFT definition will be discarded
     Please, verify this is what you really want


     R & G space division:  proc/nbgrp/npool/nimage =       8
     Subspace diagonalization in iterative solution of the eigenvalue problem:
     a serial algorithm will be used


     Parallelization info
     --------------------
     sticks:   dense  smooth     PW     G-vecs:    dense   smooth      PW
     Min          93      93     26                16039    16039    2520
     Max          94      94     27                16056    16056    2543
     Sum         745     745    211               128399   128399   20235

     Using Slab Decomposition



     bravais-lattice index     =            4
     lattice parameter (alat)  =       4.7049  a.u.
     unit-cell volume          =     721.5520 (a.u.)^3
     number of atoms/cell      =            4
     number of atomic types    =            3
     number of electrons       =        16.00
     number of Kohn-Sham states=           12
     kinetic-energy cutoff     =     120.0000  Ry
     charge density cutoff     =     480.0000  Ry
     scf convergence threshold =      1.0E-06
     mixing beta               =       0.7000
     number of iterations used =            8  plain     mixing
     energy convergence thresh.=      1.0E-04
     force convergence thresh. =      1.0E-03
     Exchange-correlation= VDW-DF2-B86R
                           (   1   4  26   0   2   0   0)
     nstep                     =           50


     celldm(1)=   4.704885  celldm(2)=   0.000000  celldm(3)=   8.000000
     celldm(4)=   0.000000  celldm(5)=   0.000000  celldm(6)=   0.000000

     crystal axes: (cart. coord. in units of alat)
               a(1) = (   1.000000   0.000000   0.000000 )  
               a(2) = (  -0.500000   0.866025   0.000000 )  
               a(3) = (   0.000000   0.000000   8.000000 )  

     reciprocal axes: (cart. coord. in units 2 pi/alat)
               b(1) = (  1.000000  0.577350 -0.000000 )  
               b(2) = (  0.000000  1.154701  0.000000 )  
               b(3) = (  0.000000 -0.000000  0.125000 )  


     PseudoPot. # 1 for C  read from file:
     ../../Pseudo/PBE/C.upf
     MD5 check sum: 34a24e64c0a39f27c6c36b90a16ac686
     Pseudo is Norm-conserving + core correction, Zval =  4.0
     Generated using ONCVPSP code by D. R. Hamann
     Using radial grid of 1248 points,  4 beta functions with: 
                l(1) =   0
                l(2) =   0
                l(3) =   1
                l(4) =   1

     PseudoPot. # 2 for B  read from file:
     ../../Pseudo/PBE/B.upf
     MD5 check sum: 72f82fc31bc892420d0cab7e25c88ab8
     Pseudo is Norm-conserving + core correction, Zval =  3.0
     Generated using ONCVPSP code by D. R. Hamann
     Using radial grid of 1534 points,  4 beta functions with: 
                l(1) =   0
                l(2) =   0
                l(3) =   1
                l(4) =   1

     PseudoPot. # 3 for N  read from file:
     ../../Pseudo/PBE/N.upf
     MD5 check sum: d34365f73bb0e2ee98afc20ec3e87676
     Pseudo is Norm-conserving + core correction, Zval =  5.0
     Generated using ONCVPSP code by D. R. Hamann
     Using radial grid of 1058 points,  4 beta functions with: 
                l(1) =   0
                l(2) =   0
                l(3) =   1
                l(4) =   1

     atomic species   valence    mass     pseudopotential
        C              4.00    12.01100     C ( 1.00)
        B              3.00    10.00000     B ( 1.00)
        N              5.00    14.00000     N ( 1.00)

      6 Sym. Ops. (no inversion) found


                                    s                        frac. trans.

      isym =  1     identity                                     

 cryst.   s( 1) = (     1          0          0      )
                  (     0          1          0      )
                  (     0          0          1      )

 cart.    s( 1) = (  1.0000000  0.0000000  0.0000000 )
                  (  0.0000000  1.0000000  0.0000000 )
                  (  0.0000000  0.0000000  1.0000000 )


      isym =  2     120 deg rotation - cryst. axis [0,0,1]       

 cryst.   s( 2) = (     0          1          0      )
                  (    -1         -1          0      )
                  (     0          0          1      )

 cart.    s( 2) = ( -0.5000000 -0.8660254  0.0000000 )
                  (  0.8660254 -0.5000000  0.0000000 )
                  (  0.0000000  0.0000000  1.0000000 )


      isym =  3     120 deg rotation - cryst. axis [0,0,-1]      

 cryst.   s( 3) = (    -1         -1          0      )
                  (     1          0          0      )
                  (     0          0          1      )

 cart.    s( 3) = ( -0.5000000  0.8660254  0.0000000 )
                  ( -0.8660254 -0.5000000  0.0000000 )
                  (  0.0000000  0.0000000  1.0000000 )


      isym =  4     inv. 180 deg rotation - cart. axis [1,0,0]   

 cryst.   s( 4) = (    -1          0          0      )
                  (     1          1          0      )
                  (     0          0          1      )

 cart.    s( 4) = ( -1.0000000  0.0000000  0.0000000 )
                  (  0.0000000  1.0000000  0.0000000 )
                  (  0.0000000  0.0000000  1.0000000 )


      isym =  5     inv. 180 deg rotation - cryst. axis [0,1,0]  

 cryst.   s( 5) = (     1          1          0      )
                  (     0         -1          0      )
                  (     0          0          1      )

 cart.    s( 5) = (  0.5000000  0.8660254  0.0000000 )
                  (  0.8660254 -0.5000000  0.0000000 )
                  (  0.0000000  0.0000000  1.0000000 )


      isym =  6     inv. 180 deg rotation - cryst. axis [1,1,0]  

 cryst.   s( 6) = (     0         -1          0      )
                  (    -1          0          0      )
                  (     0          0          1      )

 cart.    s( 6) = (  0.5000000 -0.8660254  0.0000000 )
                  ( -0.8660254 -0.5000000  0.0000000 )
                  (  0.0000000  0.0000000  1.0000000 )


     point group C_3v (3m)  
     there are  3 classes
     the character table:

       E     2C3   3s_v 
A_1    1.00  1.00  1.00
A_2    1.00  1.00 -1.00
E      2.00 -1.00  0.00

     the symmetry operations in each class and the name of the first element:

     E        1
          identity                                               
     2C3      2    3
          120 deg rotation - cryst. axis [0,0,1]                 
     3s_v     4    5    6
          inv. 180 deg rotation - cart. axis [1,0,0]             

   Cartesian axes

     site n.     atom                  positions (alat units)
         1           C   tau(   1) = (   0.0000000   0.0000000   0.0000000  )
         2           B   tau(   2) = (   0.0000000   0.0000000   1.3303760  )
         3           C   tau(   3) = (   0.5000005   0.2886748   0.0000000  )
         4           N   tau(   4) = (  -0.0000005   0.5773506   1.3303760  )

   Crystallographic axes

     site n.     atom                  positions (cryst. coord.)
         1           C   tau(   1) = (  0.0000000  0.0000000  0.0000000  )
         2           B   tau(   2) = (  0.0000000  0.0000000  0.1662970  )
         3           C   tau(   3) = (  0.6666670  0.3333330  0.0000000  )
         4           N   tau(   4) = (  0.3333330  0.6666670  0.1662970  )

     number of k points=    19  Marzari-Vanderbilt smearing, width (Ry)=  0.0050
                       cart. coord. in units 2pi/alat
        k(    1) = (   0.0000000   0.0000000   0.0000000), wk =   0.0138889
        k(    2) = (   0.0000000   0.0962250   0.0000000), wk =   0.0833333
        k(    3) = (   0.0000000   0.1924501   0.0000000), wk =   0.0833333
        k(    4) = (   0.0000000   0.2886751   0.0000000), wk =   0.0833333
        k(    5) = (   0.0000000   0.3849002   0.0000000), wk =   0.0833333
        k(    6) = (   0.0000000   0.4811252   0.0000000), wk =   0.0833333
        k(    7) = (   0.0000000  -0.5773503   0.0000000), wk =   0.0416667
        k(    8) = (   0.0833333   0.1443376   0.0000000), wk =   0.0833333
        k(    9) = (   0.0833333   0.2405626   0.0000000), wk =   0.1666667
        k(   10) = (   0.0833333   0.3367877   0.0000000), wk =   0.1666667
        k(   11) = (   0.0833333   0.4330127   0.0000000), wk =   0.1666667
        k(   12) = (   0.0833333   0.5292377   0.0000000), wk =   0.1666667
        k(   13) = (   0.1666667   0.2886751   0.0000000), wk =   0.0833333
        k(   14) = (   0.1666667   0.3849002   0.0000000), wk =   0.1666667
        k(   15) = (   0.1666667   0.4811252   0.0000000), wk =   0.1666667
        k(   16) = (   0.1666667   0.5773503   0.0000000), wk =   0.0833333
        k(   17) = (   0.2500000   0.4330127   0.0000000), wk =   0.0833333
        k(   18) = (   0.2500000   0.5292377   0.0000000), wk =   0.1666667
        k(   19) = (   0.3333333   0.5773503   0.0000000), wk =   0.0277778

                       cryst. coord.
        k(    1) = (   0.0000000   0.0000000   0.0000000), wk =   0.0138889
        k(    2) = (   0.0000000   0.0833333   0.0000000), wk =   0.0833333
        k(    3) = (   0.0000000   0.1666667   0.0000000), wk =   0.0833333
        k(    4) = (   0.0000000   0.2500000   0.0000000), wk =   0.0833333
        k(    5) = (   0.0000000   0.3333333   0.0000000), wk =   0.0833333
        k(    6) = (   0.0000000   0.4166667   0.0000000), wk =   0.0833333
        k(    7) = (   0.0000000  -0.5000000   0.0000000), wk =   0.0416667
        k(    8) = (   0.0833333   0.0833333   0.0000000), wk =   0.0833333
        k(    9) = (   0.0833333   0.1666667   0.0000000), wk =   0.1666667
        k(   10) = (   0.0833333   0.2500000   0.0000000), wk =   0.1666667
        k(   11) = (   0.0833333   0.3333333   0.0000000), wk =   0.1666667
        k(   12) = (   0.0833333   0.4166667   0.0000000), wk =   0.1666667
        k(   13) = (   0.1666667   0.1666667   0.0000000), wk =   0.0833333
        k(   14) = (   0.1666667   0.2500000   0.0000000), wk =   0.1666667
        k(   15) = (   0.1666667   0.3333333   0.0000000), wk =   0.1666667
        k(   16) = (   0.1666667   0.4166667   0.0000000), wk =   0.0833333
        k(   17) = (   0.2500000   0.2500000   0.0000000), wk =   0.0833333
        k(   18) = (   0.2500000   0.3333333   0.0000000), wk =   0.1666667
        k(   19) = (   0.3333333   0.3333333   0.0000000), wk =   0.0277778

     Dense  grid:   128399 G-vectors     FFT dimensions: (  36,  36, 270)

     Dynamical RAM for                 wfc:       0.37 MB

     Dynamical RAM for     wfc (w. buffer):       7.33 MB

     Dynamical RAM for           str. fact:       0.73 MB

     Dynamical RAM for           local pot:       0.00 MB

     Dynamical RAM for          nlocal pot:       0.98 MB

     Dynamical RAM for                qrad:       1.51 MB

     Dynamical RAM for          rho,v,vnew:       1.74 MB

     Dynamical RAM for               rhoin:       0.58 MB

     Dynamical RAM for            rho*nmix:       3.92 MB

     Dynamical RAM for           G-vectors:       1.04 MB

     Dynamical RAM for          h,s,v(r/c):       0.03 MB

     Dynamical RAM for          <psi|beta>:       0.01 MB

     Dynamical RAM for                 psi:       0.73 MB

     Dynamical RAM for                hpsi:       0.73 MB

     Dynamical RAM for      wfcinit/wfcrot:       0.98 MB

     Estimated static dynamical RAM per process >      16.58 MB

     Estimated max dynamical RAM per process >      21.99 MB

     Estimated total dynamical RAM >     175.95 MB

     Initial potential from superposition of free atoms

     starting charge      15.9997, renormalised to      16.0000

     negative rho (up, down):  3.535E-06 0.000E+00


     %%%%%%%%%%%%%%%%%%%%%%%%%%%%%%%%%%%%%%%%%%%%%%%%%%%%%%%%%%%%%%%%%%%%%%%%
     %                                                                      %
     % You are using vdW-DF, which was implemented by the Thonhauser group. %
     % Please cite the following two papers that made this development      %
     % possible and the two reviews that describe the various versions:     %
     %                                                                      %
     %   T. Thonhauser et al., PRL 115, 136402 (2015).                      %
     %   T. Thonhauser et al., PRB 76, 125112 (2007).                       %
     %   K. Berland et al., Rep. Prog. Phys. 78, 066501 (2015).             %
     %   D.C. Langreth et al., J. Phys.: Condens. Matter 21, 084203 (2009). %
     %                                                                      %
     % If you are calculating stress with vdW-DF, please also cite:         %
     %                                                                      %
     %   R. Sabatini et al., J. Phys.: Condens. Matter 24, 424209 (2012).   %
     %                                                                      %
     %%%%%%%%%%%%%%%%%%%%%%%%%%%%%%%%%%%%%%%%%%%%%%%%%%%%%%%%%%%%%%%%%%%%%%%%

     %%%%%%%%%%%%%%%%%%%%%%%%%%%%%%%%%%%%%%%%%%%%%%%%%%%%%%%%%%%%%%%%%%%%%%%%
     %                                                                      %
     %  vdW-DF NEWS:                                                        %
     %                                                                      %
     %  * vdW-DF3 is now available. DOI: 10.1021/acs.jctc.0c00471           %
     %    use with input_dft = 'vdW-DF3-opt1' or 'vdW-DF3-opt2'             %
     %                                                                      %
     %  * Unscreened and range-separated hybrid vdW-DF-cx functionals       %
     %    DOI: 10.1063/1.4986522 and 10.1088/1361-648X/ac2ad2               %
     %    use with input_dft = 'vdW-DF-cx0'    and 'vdW-DF-ahcx'            %
     %  * Unscreened and range-separated hybrid vdW-DF2-b86r functionals    %
     %    DOI: 10.1063/1.4986522 and DOI: 10.1103/PhysRevX.12.041003        %
     %    use with input_dft = 'vdW-DF2-br0' and 'vdW-DF2-ahbr'             %
     %                                                                      %
     %%%%%%%%%%%%%%%%%%%%%%%%%%%%%%%%%%%%%%%%%%%%%%%%%%%%%%%%%%%%%%%%%%%%%%%%


     Carrying out vdW-DF run using the following parameters:
     Nqs    =  20  Npoints =  1024  r_max =  100.000
     q_mesh =  0.00001000  0.04494208  0.09755937  0.15916263
               0.23128650  0.31572767  0.41458969  0.53033537
               0.66584808  0.82450364  1.01025438  1.22772762
               1.48234092  1.78043706  2.12944203  2.53805004
               3.01644009  3.57652955  4.23227104  5.00000000


     -----------------------------------------------
     Non-local corr. energy    =       0.17274276 Ry
     -----------------------------------------------

     Starting wfcs are   16 randomized atomic wfcs

     total cpu time spent up to now is        9.8 secs

     Self-consistent Calculation

     iteration #  1     ecut=   120.00 Ry     beta= 0.70
     Davidson diagonalization with overlap

---- Real-time Memory Report at c_bands before calling an iterative solver
             0 MiB given to the printing process from OS
             0 MiB allocation reported by mallinfo(arena+hblkhd)
             0 MiB available memory on the node where the printing process lives
------------------
     ethr =  1.00E-02,  avg # of iterations =  4.2


     -----------------------------------------------
     Non-local corr. energy    =       0.19946185 Ry
     -----------------------------------------------


     total cpu time spent up to now is       11.2 secs

     total energy              =     -50.82642229 Ry
     estimated scf accuracy    <       0.55467828 Ry

     iteration #  2     ecut=   120.00 Ry     beta= 0.70
     Davidson diagonalization with overlap

---- Real-time Memory Report at c_bands before calling an iterative solver
             0 MiB given to the printing process from OS
             0 MiB allocation reported by mallinfo(arena+hblkhd)
             0 MiB available memory on the node where the printing process lives
------------------
     ethr =  3.47E-03,  avg # of iterations =  4.3


     -----------------------------------------------
     Non-local corr. energy    =       0.19631167 Ry
     -----------------------------------------------


     total cpu time spent up to now is       12.6 secs

     total energy              =     -50.93253750 Ry
     estimated scf accuracy    <       0.18922930 Ry

     iteration #  3     ecut=   120.00 Ry     beta= 0.70
     Davidson diagonalization with overlap

---- Real-time Memory Report at c_bands before calling an iterative solver
             0 MiB given to the printing process from OS
             0 MiB allocation reported by mallinfo(arena+hblkhd)
             0 MiB available memory on the node where the printing process lives
------------------
     ethr =  1.18E-03,  avg # of iterations =  4.8


     -----------------------------------------------
     Non-local corr. energy    =       0.19721053 Ry
     -----------------------------------------------


     total cpu time spent up to now is       14.0 secs

     total energy              =     -50.97578034 Ry
     estimated scf accuracy    <       0.00891938 Ry

     iteration #  4     ecut=   120.00 Ry     beta= 0.70
     Davidson diagonalization with overlap

---- Real-time Memory Report at c_bands before calling an iterative solver
             0 MiB given to the printing process from OS
             0 MiB allocation reported by mallinfo(arena+hblkhd)
             0 MiB available memory on the node where the printing process lives
------------------
     ethr =  5.57E-05,  avg # of iterations =  9.7


     -----------------------------------------------
     Non-local corr. energy    =       0.19756473 Ry
     -----------------------------------------------


     total cpu time spent up to now is       15.9 secs

     total energy              =     -50.97804451 Ry
     estimated scf accuracy    <       0.00248771 Ry

     iteration #  5     ecut=   120.00 Ry     beta= 0.70
     Davidson diagonalization with overlap

---- Real-time Memory Report at c_bands before calling an iterative solver
             0 MiB given to the printing process from OS
             0 MiB allocation reported by mallinfo(arena+hblkhd)
             0 MiB available memory on the node where the printing process lives
------------------
     ethr =  1.55E-05,  avg # of iterations =  6.2


     -----------------------------------------------
     Non-local corr. energy    =       0.19764582 Ry
     -----------------------------------------------


     total cpu time spent up to now is       17.4 secs

     total energy              =     -50.97852762 Ry
     estimated scf accuracy    <       0.00036774 Ry

     iteration #  6     ecut=   120.00 Ry     beta= 0.70
     Davidson diagonalization with overlap

---- Real-time Memory Report at c_bands before calling an iterative solver
             0 MiB given to the printing process from OS
             0 MiB allocation reported by mallinfo(arena+hblkhd)
             0 MiB available memory on the node where the printing process lives
------------------
     ethr =  2.30E-06,  avg # of iterations =  6.2


     -----------------------------------------------
     Non-local corr. energy    =       0.19766766 Ry
     -----------------------------------------------


     total cpu time spent up to now is       18.9 secs

     total energy              =     -50.97858711 Ry
     estimated scf accuracy    <       0.00002966 Ry

     iteration #  7     ecut=   120.00 Ry     beta= 0.70
     Davidson diagonalization with overlap

---- Real-time Memory Report at c_bands before calling an iterative solver
             0 MiB given to the printing process from OS
             0 MiB allocation reported by mallinfo(arena+hblkhd)
             0 MiB available memory on the node where the printing process lives
------------------
     ethr =  1.85E-07,  avg # of iterations =  5.4


     -----------------------------------------------
     Non-local corr. energy    =       0.19766991 Ry
     -----------------------------------------------


     total cpu time spent up to now is       20.4 secs

     total energy              =     -50.97859803 Ry
     estimated scf accuracy    <       0.00001037 Ry

     iteration #  8     ecut=   120.00 Ry     beta= 0.70
     Davidson diagonalization with overlap

---- Real-time Memory Report at c_bands before calling an iterative solver
             0 MiB given to the printing process from OS
             0 MiB allocation reported by mallinfo(arena+hblkhd)
             0 MiB available memory on the node where the printing process lives
------------------
     ethr =  6.48E-08,  avg # of iterations =  3.1


     -----------------------------------------------
     Non-local corr. energy    =       0.19767353 Ry
     -----------------------------------------------


     total cpu time spent up to now is       21.7 secs

     total energy              =     -50.97859897 Ry
     estimated scf accuracy    <       0.00000160 Ry

     iteration #  9     ecut=   120.00 Ry     beta= 0.70
     Davidson diagonalization with overlap

---- Real-time Memory Report at c_bands before calling an iterative solver
             0 MiB given to the printing process from OS
             0 MiB allocation reported by mallinfo(arena+hblkhd)
             0 MiB available memory on the node where the printing process lives
------------------
     ethr =  9.99E-09,  avg # of iterations =  2.0


     -----------------------------------------------
     Non-local corr. energy    =       0.19767328 Ry
     -----------------------------------------------


     total cpu time spent up to now is       22.8 secs

     End of self-consistent calculation

          k = 0.0000 0.0000 0.0000 ( 16025 PWs)   bands (ev):

   -20.1758 -19.9394  -8.5915  -7.2953  -3.9412  -3.9412  -3.5809  -3.5809
     2.3055   2.7784   3.9459   5.0165

     occupation numbers 
     1.0000   1.0000   1.0000   1.0000   1.0000   1.0000   1.0000   1.0000
     0.0000   0.0000   0.0000   0.0000

          k = 0.0000 0.0962 0.0000 ( 15993 PWs)   bands (ev):

   -20.0180 -19.8012  -8.3988  -7.1146  -4.5824  -4.2685  -4.1378  -3.8427
     2.5304   2.9955   4.1702   5.2382

     occupation numbers 
     1.0000   1.0000   1.0000   1.0000   1.0000   1.0000   1.0000   1.0000
     0.0000   0.0000   0.0000   0.0000

          k = 0.0000 0.1925 0.0000 ( 15986 PWs)   bands (ev):

   -19.5532 -19.3872  -7.8266  -6.5817  -6.1946  -5.5457  -5.0374  -4.4806
     3.1881   3.6368   4.8375   5.8894

     occupation numbers 
     1.0000   1.0000   1.0000   1.0000   1.0000   1.0000   1.0000   1.0000
     0.0000   0.0000   0.0000   0.0000

          k = 0.0000 0.2887 0.0000 ( 16004 PWs)   bands (ev):

   -18.8423 -18.6694  -8.2581  -7.3596  -6.8735  -5.8941  -5.7229  -5.2209
     4.2546   4.6480   5.9182   6.1595

     occupation numbers 
     1.0000   1.0000   1.0000   1.0000   1.0000   1.0000   1.0000   1.0000
     0.0000   0.0000   0.0000   0.0000

          k = 0.0000 0.3849 0.0000 ( 16030 PWs)   bands (ev):

   -18.0139 -17.6005 -10.4222  -9.1388  -6.6100  -5.8573  -5.6380  -4.6267
     3.8805   4.9243   5.7094   6.4295

     occupation numbers 
     1.0000   1.0000   1.0000   1.0000   1.0000   1.0000   1.0000   1.0000
     0.0000   0.0000   0.0000   0.0000

          k = 0.0000 0.4811 0.0000 ( 16040 PWs)   bands (ev):

   -17.2168 -16.2435 -12.4793 -10.5779  -7.0723  -6.2749  -4.2264  -3.5304
     1.8317   3.4167   6.4028   7.2947

     occupation numbers 
     1.0000   1.0000   1.0000   1.0000   1.0000   1.0000   1.0000   1.0000
     0.0000   0.0000   0.0000   0.0000

          k = 0.0000-0.5774 0.0000 ( 16066 PWs)   bands (ev):

   -16.8413 -15.0417 -13.9215 -11.1764  -7.2311  -6.4194  -3.2794  -3.1225
     0.8155   2.6519   6.3203   7.8027

     occupation numbers 
     1.0000   1.0000   1.0000   1.0000   1.0000   1.0000   1.0000   1.0000
     0.0000   0.0000   0.0000   0.0000

          k = 0.0833 0.1443 0.0000 ( 15995 PWs)   bands (ev):

   -19.7063 -19.5254  -8.0162  -6.7575  -5.6033  -5.0546  -4.9224  -4.3601
     2.9722   3.4252   4.6165   5.6761

     occupation numbers 
     1.0000   1.0000   1.0000   1.0000   1.0000   1.0000   1.0000   1.0000
     0.0000   0.0000   0.0000   0.0000

          k = 0.0833 0.2406 0.0000 ( 15993 PWs)   bands (ev):

   -19.1132 -18.9634  -7.2886  -7.2669  -6.5424  -6.0564  -5.8940  -5.1602
     3.8384   4.2626   5.5008   6.4193

     occupation numbers 
     1.0000   1.0000   1.0000   1.0000   1.0000   1.0000   1.0000   1.0000
     0.0000   0.0000   0.0000   0.0000

          k = 0.0833 0.3368 0.0000 ( 16021 PWs)   bands (ev):

   -18.3456 -18.0612  -9.3234  -8.2812  -6.7610  -6.1594  -5.9156  -5.0735
     4.8432   5.0916   5.3062   6.1802

     occupation numbers 
     1.0000   1.0000   1.0000   1.0000   1.0000   1.0000   1.0000   1.0000
     0.0000   0.0000   0.0000   0.0000

          k = 0.0833 0.4330 0.0000 ( 16034 PWs)   bands (ev):

   -17.5140 -16.8388 -11.4052  -9.8844  -7.3831  -6.4769  -4.8017  -3.9351
     2.7361   4.1380   6.7218   7.2368

     occupation numbers 
     1.0000   1.0000   1.0000   1.0000   1.0000   1.0000   1.0000   1.0000
     0.0000   0.0000   0.0000   0.0000

          k = 0.0833 0.5292 0.0000 ( 16039 PWs)   bands (ev):

   -16.8742 -15.4053 -13.2962 -10.9435  -7.7051  -6.7700  -3.4758  -3.0698
     1.0590   2.8804   7.0413   8.1676

     occupation numbers 
     1.0000   1.0000   1.0000   1.0000   1.0000   1.0000   1.0000   1.0000
     0.0000   0.0000   0.0000   0.0000

          k = 0.1667 0.2887 0.0000 ( 15992 PWs)   bands (ev):

   -18.4617 -18.2145  -8.6076  -7.7773  -7.2133  -6.3368  -6.1819  -5.2271
     4.9085   5.1706   5.3267   6.2940

     occupation numbers 
     1.0000   1.0000   1.0000   1.0000   1.0000   1.0000   1.0000   1.0000
     0.0000   0.0000   0.0000   0.0000

          k = 0.1667 0.3849 0.0000 ( 16016 PWs)   bands (ev):

   -17.6830 -17.1425 -10.3031  -9.1420  -8.2495  -7.0592  -5.1068  -4.1657
     3.4227   4.6783   6.3987   6.9987

     occupation numbers 
     1.0000   1.0000   1.0000   1.0000   1.0000   1.0000   1.0000   1.0000
     0.0000   0.0000   0.0000   0.0000

          k = 0.1667 0.4811 0.0000 ( 16013 PWs)   bands (ev):

   -16.9372 -15.8027 -12.1686 -10.3482  -8.8204  -7.5834  -3.7182  -3.0944
     1.5730   3.3638   8.1874   8.7337

     occupation numbers 
     1.0000   1.0000   1.0000   1.0000   1.0000   1.0000   1.0000   1.0000
     0.0000   0.0000   0.0000   0.0000

          k = 0.1667 0.5774 0.0000 ( 16040 PWs)   bands (ev):

   -16.5928 -14.6252 -13.5428 -10.8643  -9.0037  -7.7561  -2.8387  -2.6041
     0.5712   2.7150   8.7815   9.5274

     occupation numbers 
     1.0000   1.0000   1.0000   1.0000   1.0000   1.0000   1.0000   1.0000
     0.0000   0.0000   0.0000   0.0000

          k = 0.2500 0.4330 0.0000 ( 16008 PWs)   bands (ev):

   -16.9674 -15.9450 -11.3395  -9.8925  -9.6792  -8.1451  -3.8152  -3.1219
     1.8495   3.6243   8.0565   8.5217

     occupation numbers 
     1.0000   1.0000   1.0000   1.0000   1.0000   1.0000   1.0000   1.0000
     0.0000   0.0000   0.0000   0.0000

          k = 0.2500 0.5292 0.0000 ( 16024 PWs)   bands (ev):

   -16.4455 -14.5637 -12.7205 -10.4271 -10.3764  -8.7502  -2.6499  -2.1489
     0.3769   2.8041   9.7787   9.9204

     occupation numbers 
     1.0000   1.0000   1.0000   1.0000   1.0000   1.0000   1.0000   1.0000
     0.0000   0.0000   0.0000   0.0000

          k = 0.3333 0.5774 0.0000 ( 16020 PWs)   bands (ev):

   -16.2463 -13.3824 -13.3803 -11.2181 -10.2420  -9.4051  -2.2538  -0.9183
    -0.8833   2.5939   9.6005   9.9804

     occupation numbers 
     1.0000   1.0000   1.0000   1.0000   1.0000   1.0000   1.0000   0.6833
     0.3167   0.0000   0.0000   0.0000

     the Fermi energy is    -0.8921 ev

!    total energy              =     -50.97859906 Ry
     estimated scf accuracy    <       0.00000014 Ry
     smearing contrib. (-TS)   =      -0.00003915 Ry
     internal energy E=F+TS    =     -50.97855991 Ry

     The total energy is F=E-TS. E is the sum of the following terms:
     one-electron contribution =    -531.19498025 Ry
     hartree contribution      =     269.50914835 Ry
     xc contribution           =     -17.29151316 Ry
     ewald contribution        =     227.99878515 Ry

     convergence has been achieved in   9 iterations


     -----------------------------------------------
     Non-local corr. energy    =       0.19767328 Ry
     -----------------------------------------------


     Forces acting on atoms (cartesian axes, Ry/au):

     atom    1 type  1   force =     0.00000000    0.00000000    0.00061886
     atom    2 type  2   force =     0.00000000    0.00000000   -0.00084406
     atom    3 type  1   force =     0.00000000    0.00000000   -0.00017328
     atom    4 type  3   force =     0.00000000    0.00000000    0.00039848
     The non-local contrib.  to forces
     atom    1 type  1   force =     0.00000000    0.00000000    0.00015543
     atom    2 type  2   force =     0.00000000   -0.00000000   -0.00004404
     atom    3 type  1   force =     0.00000000   -0.00000000   -0.00072390
     atom    4 type  3   force =    -0.00000000   -0.00000000   -0.00014113
     The ionic contribution  to forces
     atom    1 type  1   force =     0.00000836   -0.00000483  -14.00029525
     atom    2 type  2   force =    -0.00000784    0.00000453   10.50135933
     atom    3 type  1   force =    -0.00000838    0.00000484  -13.99574368
     atom    4 type  3   force =     0.00000786   -0.00000454   17.49467960
     The local contribution  to forces
     atom    1 type  1   force =     0.00000000    0.00000000   14.00073017
     atom    2 type  2   force =    -0.00000000   -0.00000000  -10.50228693
     atom    3 type  1   force =    -0.00000690    0.00000399   13.99626406
     atom    4 type  3   force =     0.00003316   -0.00001915  -17.49434720
     The core correction contribution to forces
     atom    1 type  1   force =    -0.00000000    0.00000000   -0.00007766
     atom    2 type  2   force =    -0.00000000    0.00000000    0.00002098
     atom    3 type  1   force =     0.00000053   -0.00000031   -0.00007290
     atom    4 type  3   force =    -0.00000139    0.00000080    0.00004091
     The Hubbard contrib.    to forces
     atom    1 type  1   force =     0.00000000    0.00000000    0.00000000
     atom    2 type  2   force =     0.00000000    0.00000000    0.00000000
     atom    3 type  1   force =     0.00000000    0.00000000    0.00000000
     atom    4 type  3   force =     0.00000000    0.00000000    0.00000000
     The SCF correction term to forces
     atom    1 type  1   force =     0.00000000   -0.00000000    0.00000000
     atom    2 type  2   force =    -0.00000000    0.00000000    0.00010885
     atom    3 type  1   force =     0.00000000   -0.00000000    0.00000000
     atom    4 type  3   force =     0.00000000   -0.00000000    0.00016856

     Total force =     0.000933     Total SCF correction =     0.000201
     SCF correction compared to forces is large: reduce conv_thr to get better values


     Computing stress (Cartesian axis) and pressure



     -----------------------------------------------
     Non-local corr. energy    =       0.19767328 Ry
     -----------------------------------------------

          total   stress  (Ry/bohr**3)                   (kbar)     P=       -0.22
   0.00000000   0.00000000   0.00000000            0.00        0.00        0.00
   0.00000000   0.00000000   0.00000000            0.00        0.00        0.00
   0.00000000   0.00000000  -0.00000439            0.00        0.00       -0.65

     kinetic stress (kbar)   4670.28      0.00      0.00
                                0.00   4670.28     -0.00
                                0.00     -0.00   5108.52

     local   stress (kbar)-111945.73      0.00     -0.00
                                0.00-111945.72      0.00
                               -0.00      0.00 112958.10

     nonloc. stress (kbar)   -630.59      0.00      0.00
                                0.00   -630.59      0.00
                                0.00      0.00   -579.52

     hartree stress (kbar)  54354.57      0.00     -0.00
                                0.00  54354.57     -0.00
                               -0.00     -0.00 -53763.46

     exc-cor stress (kbar)   -423.12     -0.00      0.00
                               -0.00   -423.12     -0.00
                                0.00     -0.00   -476.34

     corecor stress (kbar)   -611.16      0.00      0.00
                                0.00   -611.16     -0.00
                                0.00     -0.00   -596.08

     ewald   stress (kbar)  54582.01     -0.01      0.00
                               -0.01  54582.01     -0.00
                                0.00     -0.00 -62681.20

     hubbard stress (kbar)      0.00      0.00      0.00
                                0.00      0.00      0.00
                                0.00      0.00      0.00

     DFT-D   stress (kbar)      0.00      0.00      0.00
                                0.00      0.00      0.00
                                0.00      0.00      0.00

     XDM     stress (kbar)      0.00      0.00      0.00
                                0.00      0.00      0.00
                                0.00      0.00      0.00

     dft-nl  stress (kbar)      3.74      0.00      0.00
                                0.00      3.74     -0.00
                                0.00     -0.00     29.33

     TS-vdW  stress (kbar)      0.00      0.00      0.00
                                0.00      0.00      0.00
                                0.00      0.00      0.00

     MDB     stress (kbar)      0.00      0.00      0.00
                                0.00      0.00      0.00
                                0.00      0.00      0.00

     3D-RISM stress (kbar)      0.00      0.00      0.00
                                0.00      0.00      0.00
                                0.00      0.00      0.00


     BFGS Geometry Optimization
     Energy error            =      0.0E+00 Ry
     Gradient error          =      8.4E-04 Ry/Bohr

     bfgs converged in   1 scf cycles and   0 bfgs steps
     (criteria: energy <  1.0E-04 Ry, force <  1.0E-03 Ry/Bohr)

     End of BFGS Geometry Optimization

     Final energy             =     -50.9785990643 Ry
Begin final coordinates

ATOMIC_POSITIONS (crystal)
C             0.0000000000        0.0000000000        0.0000000000    0   0   0
B             0.0000000000        0.0000000000        0.1662970000
C             0.6666670000        0.3333330000        0.0000000000    0   0   0
N             0.3333330000        0.6666670000        0.1662970000
End final coordinates



     Writing all to output data dir ./tmp/CBN2L_AB_PBE_vdW.save/

     init_run     :      9.64s CPU      9.70s WALL (       1 calls)
     electrons    :     13.40s CPU     12.99s WALL (       1 calls)
     forces       :      0.51s CPU      0.54s WALL (       1 calls)
     stress       :      1.62s CPU      1.73s WALL (       1 calls)

     Called by init_run:
     wfcinit      :      0.43s CPU      0.43s WALL (       1 calls)
     wfcinit:atom :      0.01s CPU      0.01s WALL (      19 calls)
     wfcinit:wfcr :      0.39s CPU      0.38s WALL (      19 calls)
     potinit      :      8.52s CPU      8.56s WALL (       1 calls)
     hinit0       :      0.49s CPU      0.49s WALL (       1 calls)

     Called by electrons:
     c_bands      :     10.70s CPU     10.06s WALL (       9 calls)
     sum_band     :      1.24s CPU      1.26s WALL (       9 calls)
     v_of_rho     :      9.80s CPU     10.00s WALL (      10 calls)
     v_h          :      0.02s CPU      0.02s WALL (      10 calls)
     v_xc         :     10.08s CPU     10.35s WALL (      12 calls)
     mix_rho      :      0.05s CPU      0.08s WALL (       9 calls)
     vdW_kernel   :      8.27s CPU      8.29s WALL (       1 calls)

     Called by c_bands:
     init_us_2    :      0.26s CPU      0.27s WALL (     399 calls)
     init_us_2:cp :      0.26s CPU      0.27s WALL (     399 calls)
     cegterg      :     10.34s CPU      9.69s WALL (     171 calls)

     Called by sum_band:
     sum_band:wei :      0.00s CPU      0.00s WALL (       9 calls)
     sum_band:loo :      1.20s CPU      1.22s WALL (       9 calls)
     sum_band:buf :      0.04s CPU      0.04s WALL (     171 calls)
     sum_band:ini :      0.12s CPU      0.12s WALL (     171 calls)

     Called by *egterg:
     cdiaghg      :      0.19s CPU      0.20s WALL (    1041 calls)
     cegterg:over :      0.58s CPU      0.60s WALL (     870 calls)
     cegterg:upda :      0.52s CPU      0.43s WALL (     870 calls)
     cegterg:last :      0.64s CPU      0.41s WALL (     430 calls)
     h_psi        :      8.44s CPU      8.04s WALL (    1060 calls)
     g_psi        :      0.05s CPU      0.06s WALL (     870 calls)

     Called by h_psi:
     h_psi:calbec :      0.91s CPU      0.76s WALL (    1060 calls)
     vloc_psi     :      6.47s CPU      6.59s WALL (    1060 calls)
     add_vuspsi   :      0.97s CPU      0.60s WALL (    1060 calls)

     General routines
     calbec       :      0.99s CPU      0.84s WALL (    1155 calls)
     fft          :      1.01s CPU      1.03s WALL (     768 calls)
     ffts         :      0.01s CPU      0.01s WALL (       9 calls)
     fftw         :      6.36s CPU      6.47s WALL (   14798 calls)

     Parallel routines

     PWSCF        :     25.31s CPU     25.15s WALL


   This run was terminated on:  15:19:51  18Apr2024            

=------------------------------------------------------------------------------=
   JOB DONE.
=------------------------------------------------------------------------------=
