
     Program PWSCF v.6.7MaX starts on 18Jan2024 at 17:16:49 

     This program is part of the open-source Quantum ESPRESSO suite
     for quantum simulation of materials; please cite
         "P. Giannozzi et al., J. Phys.:Condens. Matter 21 395502 (2009);
         "P. Giannozzi et al., J. Phys.:Condens. Matter 29 465901 (2017);
          URL http://www.quantum-espresso.org", 
     in publications or presentations arising from this work. More details at
     http://www.quantum-espresso.org/quote

     Parallel version (MPI), running on     1 processors

     MPI processes distributed on     1 nodes
     Waiting for input...
     Reading input from standard input

     Current dimensions of program PWSCF are:
     Max number of different atomic species (ntypx) = 10
     Max number of k-points (npk) =  40000
     Max angular momentum in pseudopotentials (lmaxx) =  3

     Subspace diagonalization in iterative solution of the eigenvalue problem:
     a serial algorithm will be used


     G-vector sticks info
     --------------------
     sticks:   dense  smooth     PW     G-vecs:    dense   smooth      PW
     Sum         121     121     37                 6307     6307    1283



     bravais-lattice index     =            4
     lattice parameter (alat)  =       4.6350  a.u.
     unit-cell volume          =     517.4056 (a.u.)^3
     number of atoms/cell      =            2
     number of atomic types    =            1
     number of electrons       =         8.00
     number of Kohn-Sham states=            8
     kinetic-energy cutoff     =      20.0000  Ry
     charge density cutoff     =      80.0000  Ry
     scf convergence threshold =      1.0E-06
     mixing beta               =       0.7000
     number of iterations used =            8  plain     mixing
     Exchange-correlation=  SLA  PZ   NOGX NOGC
                           (   1   1   0   0   0   0   0)

     celldm(1)=   4.635000  celldm(2)=   0.000000  celldm(3)=   6.000000
     celldm(4)=   0.000000  celldm(5)=   0.000000  celldm(6)=   0.000000

     crystal axes: (cart. coord. in units of alat)
               a(1) = (   1.000000   0.000000   0.000000 )  
               a(2) = (  -0.500000   0.866025   0.000000 )  
               a(3) = (   0.000000   0.000000   6.000000 )  

     reciprocal axes: (cart. coord. in units 2 pi/alat)
               b(1) = (  1.000000  0.577350 -0.000000 )  
               b(2) = (  0.000000  1.154701  0.000000 )  
               b(3) = (  0.000000 -0.000000  0.166667 )  


     PseudoPot. # 1 for C  read from file:
     ../../../Pseudo/C.pz-vbc.UPF
     MD5 check sum: ab53dd623bfeb79c5a7b057bc96eae20
     Pseudo is Norm-conserving, Zval =  4.0
     Generated by new atomic code, or converted to UPF format
     Using radial grid of  269 points,  1 beta functions with: 
                l(1) =   0

     atomic species   valence    mass     pseudopotential
        C              4.00    12.01100     C ( 1.00)

     24 Sym. Ops., with inversion, found (12 have fractional translation)


                                    s                        frac. trans.

      isym =  1     identity                                     

 cryst.   s( 1) = (     1          0          0      )
                  (     0          1          0      )
                  (     0          0          1      )

 cart.    s( 1) = (  1.0000000  0.0000000  0.0000000 )
                  (  0.0000000  1.0000000  0.0000000 )
                  (  0.0000000  0.0000000  1.0000000 )


      isym =  2     180 deg rotation - cart. axis [0,0,1]        

 cryst.   s( 2) = (    -1          0          0      )    f =( -0.3333333 )
                  (     0         -1          0      )       (  0.3333333 )
                  (     0          0          1      )       (  0.0000000 )

 cart.    s( 2) = ( -1.0000000  0.0000000  0.0000000 )    f =( -0.5000000 )
                  (  0.0000000 -1.0000000  0.0000000 )       (  0.2886751 )
                  (  0.0000000  0.0000000  1.0000000 )       (  0.0000000 )


      isym =  3     180 deg rotation - cart. axis [0,1,0]        

 cryst.   s( 3) = (    -1          0          0      )
                  (     1          1          0      )
                  (     0          0         -1      )

 cart.    s( 3) = ( -1.0000000  0.0000000  0.0000000 )
                  (  0.0000000  1.0000000  0.0000000 )
                  (  0.0000000  0.0000000 -1.0000000 )


      isym =  4     180 deg rotation - cart. axis [1,0,0]        

 cryst.   s( 4) = (     1          0          0      )    f =( -0.3333333 )
                  (    -1         -1          0      )       (  0.3333333 )
                  (     0          0         -1      )       (  0.0000000 )

 cart.    s( 4) = (  1.0000000  0.0000000  0.0000000 )    f =( -0.5000000 )
                  (  0.0000000 -1.0000000  0.0000000 )       (  0.2886751 )
                  (  0.0000000  0.0000000 -1.0000000 )       (  0.0000000 )


      isym =  5      60 deg rotation - cryst. axis [0,0,1]       

 cryst.   s( 5) = (     1          1          0      )    f =( -0.3333333 )
                  (    -1          0          0      )       (  0.3333333 )
                  (     0          0          1      )       (  0.0000000 )

 cart.    s( 5) = (  0.5000000 -0.8660254  0.0000000 )    f =( -0.5000000 )
                  (  0.8660254  0.5000000  0.0000000 )       (  0.2886751 )
                  (  0.0000000  0.0000000  1.0000000 )       (  0.0000000 )


      isym =  6      60 deg rotation - cryst. axis [0,0,-1]      

 cryst.   s( 6) = (     0         -1          0      )    f =( -0.3333333 )
                  (     1          1          0      )       (  0.3333333 )
                  (     0          0          1      )       (  0.0000000 )

 cart.    s( 6) = (  0.5000000  0.8660254  0.0000000 )    f =( -0.5000000 )
                  ( -0.8660254  0.5000000  0.0000000 )       (  0.2886751 )
                  (  0.0000000  0.0000000  1.0000000 )       (  0.0000000 )


      isym =  7     120 deg rotation - cryst. axis [0,0,1]       

 cryst.   s( 7) = (     0          1          0      )
                  (    -1         -1          0      )
                  (     0          0          1      )

 cart.    s( 7) = ( -0.5000000 -0.8660254  0.0000000 )
                  (  0.8660254 -0.5000000  0.0000000 )
                  (  0.0000000  0.0000000  1.0000000 )


      isym =  8     120 deg rotation - cryst. axis [0,0,-1]      

 cryst.   s( 8) = (    -1         -1          0      )
                  (     1          0          0      )
                  (     0          0          1      )

 cart.    s( 8) = ( -0.5000000  0.8660254  0.0000000 )
                  ( -0.8660254 -0.5000000  0.0000000 )
                  (  0.0000000  0.0000000  1.0000000 )


      isym =  9     180 deg rotation - cryst. axis [1,-1,0]      

 cryst.   s( 9) = (     0         -1          0      )
                  (    -1          0          0      )
                  (     0          0         -1      )

 cart.    s( 9) = (  0.5000000 -0.8660254  0.0000000 )
                  ( -0.8660254 -0.5000000  0.0000000 )
                  (  0.0000000  0.0000000 -1.0000000 )


      isym = 10     180 deg rotation - cryst. axis [2,1,0]       

 cryst.   s(10) = (     1          1          0      )
                  (     0         -1          0      )
                  (     0          0         -1      )

 cart.    s(10) = (  0.5000000  0.8660254  0.0000000 )
                  (  0.8660254 -0.5000000  0.0000000 )
                  (  0.0000000  0.0000000 -1.0000000 )


      isym = 11     180 deg rotation - cryst. axis [0,1,0]       

 cryst.   s(11) = (    -1         -1          0      )    f =( -0.3333333 )
                  (     0          1          0      )       (  0.3333333 )
                  (     0          0         -1      )       (  0.0000000 )

 cart.    s(11) = ( -0.5000000 -0.8660254  0.0000000 )    f =( -0.5000000 )
                  ( -0.8660254  0.5000000  0.0000000 )       (  0.2886751 )
                  (  0.0000000  0.0000000 -1.0000000 )       (  0.0000000 )


      isym = 12     180 deg rotation - cryst. axis [1,1,0]       

 cryst.   s(12) = (     0          1          0      )    f =( -0.3333333 )
                  (     1          0          0      )       (  0.3333333 )
                  (     0          0         -1      )       (  0.0000000 )

 cart.    s(12) = ( -0.5000000  0.8660254  0.0000000 )    f =( -0.5000000 )
                  (  0.8660254  0.5000000  0.0000000 )       (  0.2886751 )
                  (  0.0000000  0.0000000 -1.0000000 )       (  0.0000000 )


      isym = 13     inversion                                    

 cryst.   s(13) = (    -1          0          0      )    f =( -0.3333333 )
                  (     0         -1          0      )       (  0.3333333 )
                  (     0          0         -1      )       (  0.0000000 )

 cart.    s(13) = ( -1.0000000  0.0000000  0.0000000 )    f =( -0.5000000 )
                  (  0.0000000 -1.0000000  0.0000000 )       (  0.2886751 )
                  (  0.0000000  0.0000000 -1.0000000 )       (  0.0000000 )


      isym = 14     inv. 180 deg rotation - cart. axis [0,0,1]   

 cryst.   s(14) = (     1          0          0      )
                  (     0          1          0      )
                  (     0          0         -1      )

 cart.    s(14) = (  1.0000000  0.0000000  0.0000000 )
                  (  0.0000000  1.0000000  0.0000000 )
                  (  0.0000000  0.0000000 -1.0000000 )


      isym = 15     inv. 180 deg rotation - cart. axis [0,1,0]   

 cryst.   s(15) = (     1          0          0      )    f =( -0.3333333 )
                  (    -1         -1          0      )       (  0.3333333 )
                  (     0          0          1      )       (  0.0000000 )

 cart.    s(15) = (  1.0000000  0.0000000  0.0000000 )    f =( -0.5000000 )
                  (  0.0000000 -1.0000000  0.0000000 )       (  0.2886751 )
                  (  0.0000000  0.0000000  1.0000000 )       (  0.0000000 )


      isym = 16     inv. 180 deg rotation - cart. axis [1,0,0]   

 cryst.   s(16) = (    -1          0          0      )
                  (     1          1          0      )
                  (     0          0          1      )

 cart.    s(16) = ( -1.0000000  0.0000000  0.0000000 )
                  (  0.0000000  1.0000000  0.0000000 )
                  (  0.0000000  0.0000000  1.0000000 )


      isym = 17     inv.  60 deg rotation - cryst. axis [0,0,1]  

 cryst.   s(17) = (    -1         -1          0      )
                  (     1          0          0      )
                  (     0          0         -1      )

 cart.    s(17) = ( -0.5000000  0.8660254  0.0000000 )
                  ( -0.8660254 -0.5000000  0.0000000 )
                  (  0.0000000  0.0000000 -1.0000000 )


      isym = 18     inv.  60 deg rotation - cryst. axis [0,0,-1] 

 cryst.   s(18) = (     0          1          0      )
                  (    -1         -1          0      )
                  (     0          0         -1      )

 cart.    s(18) = ( -0.5000000 -0.8660254  0.0000000 )
                  (  0.8660254 -0.5000000  0.0000000 )
                  (  0.0000000  0.0000000 -1.0000000 )


      isym = 19     inv. 120 deg rotation - cryst. axis [0,0,1]  

 cryst.   s(19) = (     0         -1          0      )    f =( -0.3333333 )
                  (     1          1          0      )       (  0.3333333 )
                  (     0          0         -1      )       (  0.0000000 )

 cart.    s(19) = (  0.5000000  0.8660254  0.0000000 )    f =( -0.5000000 )
                  ( -0.8660254  0.5000000  0.0000000 )       (  0.2886751 )
                  (  0.0000000  0.0000000 -1.0000000 )       (  0.0000000 )


      isym = 20     inv. 120 deg rotation - cryst. axis [0,0,-1] 

 cryst.   s(20) = (     1          1          0      )    f =( -0.3333333 )
                  (    -1          0          0      )       (  0.3333333 )
                  (     0          0         -1      )       (  0.0000000 )

 cart.    s(20) = (  0.5000000 -0.8660254  0.0000000 )    f =( -0.5000000 )
                  (  0.8660254  0.5000000  0.0000000 )       (  0.2886751 )
                  (  0.0000000  0.0000000 -1.0000000 )       (  0.0000000 )


      isym = 21     inv. 180 deg rotation - cryst. axis [1,-1,0] 

 cryst.   s(21) = (     0          1          0      )    f =( -0.3333333 )
                  (     1          0          0      )       (  0.3333333 )
                  (     0          0          1      )       (  0.0000000 )

 cart.    s(21) = ( -0.5000000  0.8660254  0.0000000 )    f =( -0.5000000 )
                  (  0.8660254  0.5000000  0.0000000 )       (  0.2886751 )
                  (  0.0000000  0.0000000  1.0000000 )       (  0.0000000 )


      isym = 22     inv. 180 deg rotation - cryst. axis [2,1,0]  

 cryst.   s(22) = (    -1         -1          0      )    f =( -0.3333333 )
                  (     0          1          0      )       (  0.3333333 )
                  (     0          0          1      )       (  0.0000000 )

 cart.    s(22) = ( -0.5000000 -0.8660254  0.0000000 )    f =( -0.5000000 )
                  ( -0.8660254  0.5000000  0.0000000 )       (  0.2886751 )
                  (  0.0000000  0.0000000  1.0000000 )       (  0.0000000 )


      isym = 23     inv. 180 deg rotation - cryst. axis [0,1,0]  

 cryst.   s(23) = (     1          1          0      )
                  (     0         -1          0      )
                  (     0          0          1      )

 cart.    s(23) = (  0.5000000  0.8660254  0.0000000 )
                  (  0.8660254 -0.5000000  0.0000000 )
                  (  0.0000000  0.0000000  1.0000000 )


      isym = 24     inv. 180 deg rotation - cryst. axis [1,1,0]  

 cryst.   s(24) = (     0         -1          0      )
                  (    -1          0          0      )
                  (     0          0          1      )

 cart.    s(24) = (  0.5000000 -0.8660254  0.0000000 )
                  ( -0.8660254 -0.5000000  0.0000000 )
                  (  0.0000000  0.0000000  1.0000000 )


     point group D_6h(6/mmm)
     there are 12 classes
     the character table:

       E     2C6   2C3   C2    3C2'  3C2'' i     2S3   2S6   s_h   3s_d  3s_v 
A_1g   1.00  1.00  1.00  1.00  1.00  1.00  1.00  1.00  1.00  1.00  1.00  1.00
A_2g   1.00  1.00  1.00  1.00 -1.00 -1.00  1.00  1.00  1.00  1.00 -1.00 -1.00
B_1g   1.00 -1.00  1.00 -1.00  1.00 -1.00  1.00 -1.00  1.00 -1.00  1.00 -1.00
B_2g   1.00 -1.00  1.00 -1.00 -1.00  1.00  1.00 -1.00  1.00 -1.00 -1.00  1.00
E_1g   2.00  1.00 -1.00 -2.00  0.00  0.00  2.00  1.00 -1.00 -2.00  0.00  0.00
E_2g   2.00 -1.00 -1.00  2.00  0.00  0.00  2.00 -1.00 -1.00  2.00  0.00  0.00
A_1u   1.00  1.00  1.00  1.00  1.00  1.00 -1.00 -1.00 -1.00 -1.00 -1.00 -1.00
A_2u   1.00  1.00  1.00  1.00 -1.00 -1.00 -1.00 -1.00 -1.00 -1.00  1.00  1.00
B_1u   1.00 -1.00  1.00 -1.00  1.00 -1.00 -1.00  1.00 -1.00  1.00 -1.00  1.00
B_2u   1.00 -1.00  1.00 -1.00 -1.00  1.00 -1.00  1.00 -1.00  1.00  1.00 -1.00
E_1u   2.00  1.00 -1.00 -2.00  0.00  0.00 -2.00 -1.00  1.00  2.00  0.00  0.00
E_2u   2.00 -1.00 -1.00  2.00  0.00  0.00 -2.00  1.00  1.00 -2.00  0.00  0.00

     the symmetry operations in each class and the name of the first element:

     E        1
          identity                                               
     2C6      5    6
           60 deg rotation - cryst. axis [0,0,1]                 
     2C3      7    8
          120 deg rotation - cryst. axis [0,0,1]                 
     C2       2
          180 deg rotation - cart. axis [0,0,1]                  
     3C2'     4   12   11
          180 deg rotation - cart. axis [1,0,0]                  
     3C2''    3    9   10
          180 deg rotation - cart. axis [0,1,0]                  
     i       13
          inversion                                              
     2S3     17   18
          inv.  60 deg rotation - cryst. axis [0,0,1]            
     2S6     19   20
          inv. 120 deg rotation - cryst. axis [0,0,1]            
     s_h     14
          inv. 180 deg rotation - cart. axis [0,0,1]             
     3s_d    16   24   23
          inv. 180 deg rotation - cart. axis [1,0,0]             
     3s_v    15   21   22
          inv. 180 deg rotation - cart. axis [0,1,0]             

   Cartesian axes

     site n.     atom                  positions (alat units)
         1           C   tau(   1) = (   0.0000000   0.0000000   0.0000000  )
         2           C   tau(   2) = (  -0.0000000   0.5773503   0.0000000  )

   Crystallographic axes

     site n.     atom                  positions (cryst. coord.)
         1           C   tau(   1) = (  0.0000000  0.0000000  0.0000000  )
         2           C   tau(   2) = (  0.3333333  0.6666667  0.0000000  )

     number of k points=    80  Marzari-Vanderbilt smearing, width (Ry)=  0.0100
                       cart. coord. in units 2pi/alat
        k(    1) = (   0.0000000   0.0000000   0.0000000), wk =   0.0025510
        k(    2) = (   0.0000000   0.0412393   0.0000000), wk =   0.0153061
        k(    3) = (   0.0000000   0.0824786   0.0000000), wk =   0.0153061
        k(    4) = (   0.0000000   0.1237179   0.0000000), wk =   0.0153061
        k(    5) = (   0.0000000   0.1649572   0.0000000), wk =   0.0153061
        k(    6) = (   0.0000000   0.2061965   0.0000000), wk =   0.0153061
        k(    7) = (   0.0000000   0.2474358   0.0000000), wk =   0.0153061
        k(    8) = (   0.0000000   0.2886751   0.0000000), wk =   0.0153061
        k(    9) = (   0.0000000   0.3299144   0.0000000), wk =   0.0153061
        k(   10) = (   0.0000000   0.3711537   0.0000000), wk =   0.0153061
        k(   11) = (   0.0000000   0.4123930   0.0000000), wk =   0.0153061
        k(   12) = (   0.0000000   0.4536324   0.0000000), wk =   0.0153061
        k(   13) = (   0.0000000   0.4948717   0.0000000), wk =   0.0153061
        k(   14) = (   0.0000000   0.5361110   0.0000000), wk =   0.0153061
        k(   15) = (   0.0000000  -0.5773503   0.0000000), wk =   0.0076531
        k(   16) = (   0.0357143   0.0618590   0.0000000), wk =   0.0153061
        k(   17) = (   0.0357143   0.1030983   0.0000000), wk =   0.0306122
        k(   18) = (   0.0357143   0.1443376   0.0000000), wk =   0.0306122
        k(   19) = (   0.0357143   0.1855769   0.0000000), wk =   0.0306122
        k(   20) = (   0.0357143   0.2268162   0.0000000), wk =   0.0306122
        k(   21) = (   0.0357143   0.2680555   0.0000000), wk =   0.0306122
        k(   22) = (   0.0357143   0.3092948   0.0000000), wk =   0.0306122
        k(   23) = (   0.0357143   0.3505341   0.0000000), wk =   0.0306122
        k(   24) = (   0.0357143   0.3917734   0.0000000), wk =   0.0306122
        k(   25) = (   0.0357143   0.4330127   0.0000000), wk =   0.0306122
        k(   26) = (   0.0357143   0.4742520   0.0000000), wk =   0.0306122
        k(   27) = (   0.0357143   0.5154913   0.0000000), wk =   0.0306122
        k(   28) = (   0.0357143   0.5567306   0.0000000), wk =   0.0306122
        k(   29) = (   0.0714286   0.1237179   0.0000000), wk =   0.0153061
        k(   30) = (   0.0714286   0.1649572   0.0000000), wk =   0.0306122
        k(   31) = (   0.0714286   0.2061965   0.0000000), wk =   0.0306122
        k(   32) = (   0.0714286   0.2474358   0.0000000), wk =   0.0306122
        k(   33) = (   0.0714286   0.2886751   0.0000000), wk =   0.0306122
        k(   34) = (   0.0714286   0.3299144   0.0000000), wk =   0.0306122
        k(   35) = (   0.0714286   0.3711537   0.0000000), wk =   0.0306122
        k(   36) = (   0.0714286   0.4123930   0.0000000), wk =   0.0306122
        k(   37) = (   0.0714286   0.4536324   0.0000000), wk =   0.0306122
        k(   38) = (   0.0714286   0.4948717   0.0000000), wk =   0.0306122
        k(   39) = (   0.0714286   0.5361110   0.0000000), wk =   0.0306122
        k(   40) = (   0.0714286   0.5773503   0.0000000), wk =   0.0153061
        k(   41) = (   0.1071429   0.1855769   0.0000000), wk =   0.0153061
        k(   42) = (   0.1071429   0.2268162   0.0000000), wk =   0.0306122
        k(   43) = (   0.1071429   0.2680555   0.0000000), wk =   0.0306122
        k(   44) = (   0.1071429   0.3092948   0.0000000), wk =   0.0306122
        k(   45) = (   0.1071429   0.3505341   0.0000000), wk =   0.0306122
        k(   46) = (   0.1071429   0.3917734   0.0000000), wk =   0.0306122
        k(   47) = (   0.1071429   0.4330127   0.0000000), wk =   0.0306122
        k(   48) = (   0.1071429   0.4742520   0.0000000), wk =   0.0306122
        k(   49) = (   0.1071429   0.5154913   0.0000000), wk =   0.0306122
        k(   50) = (   0.1071429   0.5567306   0.0000000), wk =   0.0306122
        k(   51) = (   0.1428571   0.2474358   0.0000000), wk =   0.0153061
        k(   52) = (   0.1428571   0.2886751   0.0000000), wk =   0.0306122
        k(   53) = (   0.1428571   0.3299144   0.0000000), wk =   0.0306122
        k(   54) = (   0.1428571   0.3711537   0.0000000), wk =   0.0306122
        k(   55) = (   0.1428571   0.4123930   0.0000000), wk =   0.0306122
        k(   56) = (   0.1428571   0.4536324   0.0000000), wk =   0.0306122
        k(   57) = (   0.1428571   0.4948717   0.0000000), wk =   0.0306122
        k(   58) = (   0.1428571   0.5361110   0.0000000), wk =   0.0306122
        k(   59) = (   0.1428571   0.5773503   0.0000000), wk =   0.0153061
        k(   60) = (   0.1785714   0.3092948   0.0000000), wk =   0.0153061
        k(   61) = (   0.1785714   0.3505341   0.0000000), wk =   0.0306122
        k(   62) = (   0.1785714   0.3917734   0.0000000), wk =   0.0306122
        k(   63) = (   0.1785714   0.4330127   0.0000000), wk =   0.0306122
        k(   64) = (   0.1785714   0.4742520   0.0000000), wk =   0.0306122
        k(   65) = (   0.1785714   0.5154913   0.0000000), wk =   0.0306122
        k(   66) = (   0.1785714   0.5567306   0.0000000), wk =   0.0306122
        k(   67) = (   0.2142857   0.3711537   0.0000000), wk =   0.0153061
        k(   68) = (   0.2142857   0.4123930   0.0000000), wk =   0.0306122
        k(   69) = (   0.2142857   0.4536324   0.0000000), wk =   0.0306122
        k(   70) = (   0.2142857   0.4948717   0.0000000), wk =   0.0306122
        k(   71) = (   0.2142857   0.5361110   0.0000000), wk =   0.0306122
        k(   72) = (   0.2142857   0.5773503   0.0000000), wk =   0.0153061
        k(   73) = (   0.2500000   0.4330127   0.0000000), wk =   0.0153061
        k(   74) = (   0.2500000   0.4742520   0.0000000), wk =   0.0306122
        k(   75) = (   0.2500000   0.5154913   0.0000000), wk =   0.0306122
        k(   76) = (   0.2500000   0.5567306   0.0000000), wk =   0.0306122
        k(   77) = (   0.2857143   0.4948717   0.0000000), wk =   0.0153061
        k(   78) = (   0.2857143   0.5361110   0.0000000), wk =   0.0306122
        k(   79) = (   0.2857143   0.5773503   0.0000000), wk =   0.0153061
        k(   80) = (   0.3214286   0.5567306   0.0000000), wk =   0.0153061

                       cryst. coord.
        k(    1) = (   0.0000000   0.0000000   0.0000000), wk =   0.0025510
        k(    2) = (   0.0000000   0.0357143   0.0000000), wk =   0.0153061
        k(    3) = (   0.0000000   0.0714286   0.0000000), wk =   0.0153061
        k(    4) = (   0.0000000   0.1071429   0.0000000), wk =   0.0153061
        k(    5) = (   0.0000000   0.1428571   0.0000000), wk =   0.0153061
        k(    6) = (   0.0000000   0.1785714   0.0000000), wk =   0.0153061
        k(    7) = (   0.0000000   0.2142857   0.0000000), wk =   0.0153061
        k(    8) = (   0.0000000   0.2500000   0.0000000), wk =   0.0153061
        k(    9) = (   0.0000000   0.2857143   0.0000000), wk =   0.0153061
        k(   10) = (   0.0000000   0.3214286   0.0000000), wk =   0.0153061
        k(   11) = (   0.0000000   0.3571429   0.0000000), wk =   0.0153061
        k(   12) = (   0.0000000   0.3928571   0.0000000), wk =   0.0153061
        k(   13) = (   0.0000000   0.4285714   0.0000000), wk =   0.0153061
        k(   14) = (   0.0000000   0.4642857   0.0000000), wk =   0.0153061
        k(   15) = (   0.0000000  -0.5000000   0.0000000), wk =   0.0076531
        k(   16) = (   0.0357143   0.0357143   0.0000000), wk =   0.0153061
        k(   17) = (   0.0357143   0.0714286   0.0000000), wk =   0.0306122
        k(   18) = (   0.0357143   0.1071429   0.0000000), wk =   0.0306122
        k(   19) = (   0.0357143   0.1428571   0.0000000), wk =   0.0306122
        k(   20) = (   0.0357143   0.1785714   0.0000000), wk =   0.0306122
        k(   21) = (   0.0357143   0.2142857   0.0000000), wk =   0.0306122
        k(   22) = (   0.0357143   0.2500000   0.0000000), wk =   0.0306122
        k(   23) = (   0.0357143   0.2857143   0.0000000), wk =   0.0306122
        k(   24) = (   0.0357143   0.3214286   0.0000000), wk =   0.0306122
        k(   25) = (   0.0357143   0.3571429   0.0000000), wk =   0.0306122
        k(   26) = (   0.0357143   0.3928571   0.0000000), wk =   0.0306122
        k(   27) = (   0.0357143   0.4285714   0.0000000), wk =   0.0306122
        k(   28) = (   0.0357143   0.4642857   0.0000000), wk =   0.0306122
        k(   29) = (   0.0714286   0.0714286   0.0000000), wk =   0.0153061
        k(   30) = (   0.0714286   0.1071429   0.0000000), wk =   0.0306122
        k(   31) = (   0.0714286   0.1428571   0.0000000), wk =   0.0306122
        k(   32) = (   0.0714286   0.1785714   0.0000000), wk =   0.0306122
        k(   33) = (   0.0714286   0.2142857   0.0000000), wk =   0.0306122
        k(   34) = (   0.0714286   0.2500000   0.0000000), wk =   0.0306122
        k(   35) = (   0.0714286   0.2857143   0.0000000), wk =   0.0306122
        k(   36) = (   0.0714286   0.3214286   0.0000000), wk =   0.0306122
        k(   37) = (   0.0714286   0.3571429   0.0000000), wk =   0.0306122
        k(   38) = (   0.0714286   0.3928571   0.0000000), wk =   0.0306122
        k(   39) = (   0.0714286   0.4285714   0.0000000), wk =   0.0306122
        k(   40) = (   0.0714286   0.4642857   0.0000000), wk =   0.0153061
        k(   41) = (   0.1071429   0.1071429   0.0000000), wk =   0.0153061
        k(   42) = (   0.1071429   0.1428571   0.0000000), wk =   0.0306122
        k(   43) = (   0.1071429   0.1785714   0.0000000), wk =   0.0306122
        k(   44) = (   0.1071429   0.2142857   0.0000000), wk =   0.0306122
        k(   45) = (   0.1071429   0.2500000   0.0000000), wk =   0.0306122
        k(   46) = (   0.1071429   0.2857143   0.0000000), wk =   0.0306122
        k(   47) = (   0.1071429   0.3214286   0.0000000), wk =   0.0306122
        k(   48) = (   0.1071429   0.3571429   0.0000000), wk =   0.0306122
        k(   49) = (   0.1071429   0.3928571   0.0000000), wk =   0.0306122
        k(   50) = (   0.1071429   0.4285714   0.0000000), wk =   0.0306122
        k(   51) = (   0.1428571   0.1428571   0.0000000), wk =   0.0153061
        k(   52) = (   0.1428571   0.1785714   0.0000000), wk =   0.0306122
        k(   53) = (   0.1428571   0.2142857   0.0000000), wk =   0.0306122
        k(   54) = (   0.1428571   0.2500000   0.0000000), wk =   0.0306122
        k(   55) = (   0.1428571   0.2857143   0.0000000), wk =   0.0306122
        k(   56) = (   0.1428571   0.3214286   0.0000000), wk =   0.0306122
        k(   57) = (   0.1428571   0.3571429   0.0000000), wk =   0.0306122
        k(   58) = (   0.1428571   0.3928571   0.0000000), wk =   0.0306122
        k(   59) = (   0.1428571   0.4285714   0.0000000), wk =   0.0153061
        k(   60) = (   0.1785714   0.1785714   0.0000000), wk =   0.0153061
        k(   61) = (   0.1785714   0.2142857   0.0000000), wk =   0.0306122
        k(   62) = (   0.1785714   0.2500000   0.0000000), wk =   0.0306122
        k(   63) = (   0.1785714   0.2857143   0.0000000), wk =   0.0306122
        k(   64) = (   0.1785714   0.3214286   0.0000000), wk =   0.0306122
        k(   65) = (   0.1785714   0.3571429   0.0000000), wk =   0.0306122
        k(   66) = (   0.1785714   0.3928571   0.0000000), wk =   0.0306122
        k(   67) = (   0.2142857   0.2142857   0.0000000), wk =   0.0153061
        k(   68) = (   0.2142857   0.2500000   0.0000000), wk =   0.0306122
        k(   69) = (   0.2142857   0.2857143   0.0000000), wk =   0.0306122
        k(   70) = (   0.2142857   0.3214286   0.0000000), wk =   0.0306122
        k(   71) = (   0.2142857   0.3571429   0.0000000), wk =   0.0306122
        k(   72) = (   0.2142857   0.3928571   0.0000000), wk =   0.0153061
        k(   73) = (   0.2500000   0.2500000   0.0000000), wk =   0.0153061
        k(   74) = (   0.2500000   0.2857143   0.0000000), wk =   0.0306122
        k(   75) = (   0.2500000   0.3214286   0.0000000), wk =   0.0306122
        k(   76) = (   0.2500000   0.3571429   0.0000000), wk =   0.0306122
        k(   77) = (   0.2857143   0.2857143   0.0000000), wk =   0.0153061
        k(   78) = (   0.2857143   0.3214286   0.0000000), wk =   0.0306122
        k(   79) = (   0.2857143   0.3571429   0.0000000), wk =   0.0153061
        k(   80) = (   0.3214286   0.3214286   0.0000000), wk =   0.0153061

     Dense  grid:     6307 G-vectors     FFT dimensions: (  15,  15,  80)

     Dynamical RAM for                 wfc:       0.10 MB

     Dynamical RAM for     wfc (w. buffer):       7.72 MB

     Dynamical RAM for           str. fact:       0.10 MB

     Dynamical RAM for           local pot:       0.00 MB

     Dynamical RAM for          nlocal pot:       0.02 MB

     Dynamical RAM for                qrad:       0.01 MB

     Dynamical RAM for          rho,v,vnew:       0.70 MB

     Dynamical RAM for               rhoin:       0.23 MB

     Dynamical RAM for            rho*nmix:       1.54 MB

     Dynamical RAM for           G-vectors:       0.41 MB

     Dynamical RAM for          h,s,v(r/c):       0.01 MB

     Dynamical RAM for          <psi|beta>:       0.00 MB

     Dynamical RAM for                 psi:       0.19 MB

     Dynamical RAM for                hpsi:       0.19 MB

     Dynamical RAM for      wfcinit/wfcrot:       0.19 MB

     Estimated static dynamical RAM per process >      11.61 MB

     Estimated max dynamical RAM per process >      12.00 MB

     Initial potential from superposition of free atoms

     starting charge    7.99994, renormalised to    8.00000

     negative rho (up, down):  6.623E-03 0.000E+00
     Starting wfcs are    8 randomized atomic wfcs

     total cpu time spent up to now is        0.2 secs

     Self-consistent Calculation

     iteration #  1     ecut=    20.00 Ry     beta= 0.70
     Davidson diagonalization with overlap
     ethr =  1.00E-02,  avg # of iterations =  6.5

     negative rho (up, down):  1.716E-03 0.000E+00

     total cpu time spent up to now is        0.9 secs

     total energy              =     -22.13599399 Ry
     estimated scf accuracy    <       0.13871107 Ry

     iteration #  2     ecut=    20.00 Ry     beta= 0.70
     Davidson diagonalization with overlap
     ethr =  1.73E-03,  avg # of iterations =  3.1

     negative rho (up, down):  2.837E-04 0.000E+00

     total cpu time spent up to now is        1.3 secs

     total energy              =     -22.15265178 Ry
     estimated scf accuracy    <       0.00355126 Ry

     iteration #  3     ecut=    20.00 Ry     beta= 0.70
     Davidson diagonalization with overlap
     ethr =  4.44E-05,  avg # of iterations =  7.6

     total cpu time spent up to now is        1.8 secs

     total energy              =     -22.15282759 Ry
     estimated scf accuracy    <       0.00020058 Ry

     iteration #  4     ecut=    20.00 Ry     beta= 0.70
     Davidson diagonalization with overlap
     ethr =  2.51E-06,  avg # of iterations =  4.2

     total cpu time spent up to now is        2.3 secs

     End of self-consistent calculation

          k = 0.0000 0.0000 0.0000 (   801 PWs)   bands (ev):

   -21.7415  -9.6407  -4.6304  -4.6304   1.3755   2.4934   2.7866   4.8424

     occupation numbers 
     1.0000   1.0000   1.0000   1.0000   0.0000   0.0000   0.0000   0.0000

          k = 0.0000 0.0412 0.0000 (   795 PWs)   bands (ev):

   -21.7068  -9.6006  -4.7216  -4.6748   1.4170   2.5355   2.8290   4.8840

     occupation numbers 
     1.0000   1.0000   1.0000   1.0000   0.0000   0.0000   0.0000   0.0000

          k = 0.0000 0.0825 0.0000 (   799 PWs)   bands (ev):

   -21.6184  -9.5051  -5.1350  -4.8848   1.5413   2.6593   2.9555   5.0060

     occupation numbers 
     1.0000   1.0000   1.0000   1.0000   0.0000   0.0000   0.0000   0.0000

          k = 0.0000 0.1237 0.0000 (   791 PWs)   bands (ev):

   -21.4550  -9.3165  -5.6751  -5.1633   1.7489   2.8684   3.1668   5.2131

     occupation numbers 
     1.0000   1.0000   1.0000   1.0000   0.0000   0.0000   0.0000   0.0000

          k = 0.0000 0.1650 0.0000 (   793 PWs)   bands (ev):

   -21.2340  -9.0587  -6.4649  -5.5290   2.0392   3.1602   3.4622   5.5018

     occupation numbers 
     1.0000   1.0000   1.0000   1.0000   0.0000   0.0000   0.0000   0.0000

          k = 0.0000 0.2062 0.0000 (   786 PWs)   bands (ev):

   -20.9672  -8.7032  -7.2856  -5.9144   2.4096   3.5371   3.8415   5.8741

     occupation numbers 
     1.0000   1.0000   1.0000   1.0000   0.0000   0.0000   0.0000   0.0000

          k = 0.0000 0.2474 0.0000 (   780 PWs)   bands (ev):

   -20.6312  -8.3010  -8.1949  -6.3045   2.8640   3.9924   4.3056   6.5712

     occupation numbers 
     1.0000   1.0000   1.0000   1.0000   0.0000   0.0000   0.0000   0.0000

          k = 0.0000 0.2887 0.0000 (   780 PWs)   bands (ev):

   -20.2369  -9.1579  -7.8321  -6.7683   3.4003   4.5218   4.8537   6.3506

     occupation numbers 
     1.0000   1.0000   1.0000   1.0000   0.0000   0.0000   0.0000   0.0000

          k = 0.0000 0.3299 0.0000 (   766 PWs)   bands (ev):

   -19.7768 -10.0884  -7.2914  -7.0854   4.0186   4.9736   5.4444   5.4849

     occupation numbers 
     1.0000   1.0000   1.0000   1.0000   0.0000   0.0000   0.0000   0.0000

          k = 0.0000 0.3712 0.0000 (   778 PWs)   bands (ev):

   -19.2868 -11.1146  -7.4127  -6.7201   4.0459   4.7152   5.8503   5.9117

     occupation numbers 
     1.0000   1.0000   1.0000   1.0000   0.0000   0.0000   0.0000   0.0000

          k = 0.0000 0.4124 0.0000 (   780 PWs)   bands (ev):

   -18.7283 -12.1307  -7.6957  -6.0640   2.9571   5.4759   5.6855   6.6869

     occupation numbers 
     1.0000   1.0000   1.0000   1.0000   0.0000   0.0000   0.0000   0.0000

          k = 0.0000 0.4536 0.0000 (   784 PWs)   bands (ev):

   -18.1079 -13.0975  -7.9375  -5.4054   1.9163   5.4972   6.3626   7.5480

     occupation numbers 
     1.0000   1.0000   1.0000   1.0000   0.0000   0.0000   0.0000   0.0000

          k = 0.0000 0.4949 0.0000 (   792 PWs)   bands (ev):

   -17.4436 -14.0359  -8.1079  -4.7753   0.9871   5.3748   7.2978   8.4888

     occupation numbers 
     1.0000   1.0000   1.0000   1.0000   0.0000   0.0000   0.0000   0.0000

          k = 0.0000 0.5361 0.0000 (   792 PWs)   bands (ev):

   -16.7683 -14.8742  -8.2005  -4.2631   0.3204   5.3128   8.3081   9.5019

     occupation numbers 
     1.0000   1.0000   1.0000   1.0000   0.0000   0.0000   0.0000   0.0000

          k = 0.0000-0.5774 0.0000 (   782 PWs)   bands (ev):

   -16.2997 -15.3656  -8.2082  -4.0297   0.0713   5.3070   9.3324   9.4625

     occupation numbers 
     1.0000   1.0000   1.0000   1.0000   0.0000   0.0000   0.0000   0.0000

          k = 0.0357 0.0619 0.0000 (   799 PWs)   bands (ev):

   -21.6475  -9.5346  -5.0022  -4.8438   1.4998   2.6182   2.9135   4.9657

     occupation numbers 
     1.0000   1.0000   1.0000   1.0000   0.0000   0.0000   0.0000   0.0000

          k = 0.0357 0.1031 0.0000 (   795 PWs)   bands (ev):

   -21.5207  -9.3921  -5.4419  -5.0980   1.6658   2.7848   3.0823   5.1304

     occupation numbers 
     1.0000   1.0000   1.0000   1.0000   0.0000   0.0000   0.0000   0.0000

          k = 0.0357 0.1443 0.0000 (   797 PWs)   bands (ev):

   -21.3305  -9.1696  -6.1369  -5.4613   1.9147   3.0352   3.3356   5.3782

     occupation numbers 
     1.0000   1.0000   1.0000   1.0000   0.0000   0.0000   0.0000   0.0000

          k = 0.0357 0.1856 0.0000 (   792 PWs)   bands (ev):

   -21.0887  -8.8615  -6.8868  -5.8401   2.2448   3.3698   3.6730   5.7092

     occupation numbers 
     1.0000   1.0000   1.0000   1.0000   0.0000   0.0000   0.0000   0.0000

          k = 0.0357 0.2268 0.0000 (   786 PWs)   bands (ev):

   -20.7795  -8.4800  -7.7623  -6.2543   2.6581   3.7865   4.0948   6.1183

     occupation numbers 
     1.0000   1.0000   1.0000   1.0000   0.0000   0.0000   0.0000   0.0000

          k = 0.0357 0.2681 0.0000 (   775 PWs)   bands (ev):

   -20.4125  -8.6439  -8.0470  -6.6383   3.1536   4.2802   4.6010   6.6291

     occupation numbers 
     1.0000   1.0000   1.0000   1.0000   0.0000   0.0000   0.0000   0.0000

          k = 0.0357 0.3093 0.0000 (   772 PWs)   bands (ev):

   -19.9934  -9.6203  -7.5429  -6.9973   3.7302   4.8294   5.1910   5.8106

     occupation numbers 
     1.0000   1.0000   1.0000   1.0000   0.0000   0.0000   0.0000   0.0000

          k = 0.0357 0.3505 0.0000 (   775 PWs)   bands (ev):

   -19.5248 -10.6032  -7.3536  -6.9869   4.3873   4.5764   5.6012   5.8600

     occupation numbers 
     1.0000   1.0000   1.0000   1.0000   0.0000   0.0000   0.0000   0.0000

          k = 0.0357 0.3918 0.0000 (   775 PWs)   bands (ev):

   -18.9898 -11.6255  -7.6485  -6.3506   3.4881   5.1244   5.9226   6.3163

     occupation numbers 
     1.0000   1.0000   1.0000   1.0000   0.0000   0.0000   0.0000   0.0000

          k = 0.0357 0.4330 0.0000 (   775 PWs)   bands (ev):

   -18.3862 -12.6108  -7.8959  -5.7053   2.4322   5.7227   5.9660   7.1342

     occupation numbers 
     1.0000   1.0000   1.0000   1.0000   0.0000   0.0000   0.0000   0.0000

          k = 0.0357 0.4743 0.0000 (   784 PWs)   bands (ev):

   -17.7596 -13.5481  -8.1080  -5.0551   1.4316   5.5913   6.8503   8.0342

     occupation numbers 
     1.0000   1.0000   1.0000   1.0000   0.0000   0.0000   0.0000   0.0000

          k = 0.0357 0.5155 0.0000 (   786 PWs)   bands (ev):

   -17.0688 -14.4463  -8.2285  -4.4645   0.6169   5.4973   7.8251   9.0096

     occupation numbers 
     1.0000   1.0000   1.0000   1.0000   0.0000   0.0000   0.0000   0.0000

          k = 0.0357 0.5567 0.0000 (   784 PWs)   bands (ev):

   -16.4352 -15.1823  -8.2969  -4.0657   0.1329   5.4629   8.8701   9.9954

     occupation numbers 
     1.0000   1.0000   1.0000   1.0000   0.0000   0.0000   0.0000   0.0000

          k = 0.0714 0.1237 0.0000 (   795 PWs)   bands (ev):

   -21.3650  -9.2171  -5.9342  -5.4373   1.8732   2.9925   3.2934   5.3359

     occupation numbers 
     1.0000   1.0000   1.0000   1.0000   0.0000   0.0000   0.0000   0.0000

          k = 0.0714 0.1650 0.0000 (   791 PWs)   bands (ev):

   -21.1385  -8.9469  -6.6267  -5.8363   2.1638   3.2854   3.5891   5.6257

     occupation numbers 
     1.0000   1.0000   1.0000   1.0000   0.0000   0.0000   0.0000   0.0000

          k = 0.0714 0.2062 0.0000 (   792 PWs)   bands (ev):

   -20.8781  -8.6146  -7.3949  -6.2630   2.5341   3.6600   3.9683   5.9952

     occupation numbers 
     1.0000   1.0000   1.0000   1.0000   0.0000   0.0000   0.0000   0.0000

          k = 0.0714 0.2474 0.0000 (   780 PWs)   bands (ev):

   -20.5463  -8.1974  -8.1908  -6.6977   2.9875   4.1175   4.4322   6.4370

     occupation numbers 
     1.0000   1.0000   1.0000   1.0000   0.0000   0.0000   0.0000   0.0000

          k = 0.0714 0.2887 0.0000 (   776 PWs)   bands (ev):

   -20.1576  -9.1269  -7.7174  -7.1345   3.5232   4.6480   4.9804   6.2399

     occupation numbers 
     1.0000   1.0000   1.0000   1.0000   0.0000   0.0000   0.0000   0.0000

          k = 0.0714 0.3299 0.0000 (   778 PWs)   bands (ev):

   -19.7168 -10.1102  -7.5006  -7.1937   4.1400   4.9994   5.4252   5.6122

     occupation numbers 
     1.0000   1.0000   1.0000   1.0000   0.0000   0.0000   0.0000   0.0000

          k = 0.0714 0.3712 0.0000 (   783 PWs)   bands (ev):

   -19.2080 -11.0873  -7.8740  -6.5976   3.9672   4.8388   6.0177   6.3201

     occupation numbers 
     1.0000   1.0000   1.0000   1.0000   0.0000   0.0000   0.0000   0.0000

          k = 0.0714 0.4124 0.0000 (   781 PWs)   bands (ev):

   -18.6365 -12.0835  -8.1434  -5.9506   2.9020   5.6165   6.2736   6.7941

     occupation numbers 
     1.0000   1.0000   1.0000   1.0000   0.0000   0.0000   0.0000   0.0000

          k = 0.0714 0.4536 0.0000 (   779 PWs)   bands (ev):

   -18.0203 -13.0261  -8.3474  -5.2971   1.9000   6.1102   6.4870   7.6511

     occupation numbers 
     1.0000   1.0000   1.0000   1.0000   0.0000   0.0000   0.0000   0.0000

          k = 0.0714 0.4949 0.0000 (   781 PWs)   bands (ev):

   -17.3492 -13.9526  -8.4985  -4.6608   0.9956   5.9983   7.4183   8.5818

     occupation numbers 
     1.0000   1.0000   1.0000   1.0000   0.0000   0.0000   0.0000   0.0000

          k = 0.0714 0.5361 0.0000 (   782 PWs)   bands (ev):

   -16.6694 -14.7917  -8.6108  -4.1336   0.3174   5.9350   8.4274   9.5713

     occupation numbers 
     1.0000   1.0000   1.0000   1.0000   0.0000   0.0000   0.0000   0.0000

          k = 0.0714 0.5774 0.0000 (   782 PWs)   bands (ev):

   -16.2132 -15.2822  -8.6539  -3.9136   0.0474   5.9156   9.4439   9.5777

     occupation numbers 
     1.0000   1.0000   1.0000   1.0000   0.0000   0.0000   0.0000   0.0000

          k = 0.1071 0.1856 0.0000 (   799 PWs)   bands (ev):

   -20.9228  -8.6536  -7.1952  -6.3899   2.4916   3.6183   3.9259   5.9545

     occupation numbers 
     1.0000   1.0000   1.0000   1.0000   0.0000   0.0000   0.0000   0.0000

          k = 0.1071 0.2268 0.0000 (   782 PWs)   bands (ev):

   -20.6111  -8.2698  -7.8630  -6.8743   2.9050   4.0353   4.3479   6.3656

     occupation numbers 
     1.0000   1.0000   1.0000   1.0000   0.0000   0.0000   0.0000   0.0000

          k = 0.1071 0.2681 0.0000 (   785 PWs)   bands (ev):

   -20.2551  -8.7247  -7.8354  -7.3660   3.3996   4.5301   4.8540   6.5353

     occupation numbers 
     1.0000   1.0000   1.0000   1.0000   0.0000   0.0000   0.0000   0.0000

          k = 0.1071 0.3093 0.0000 (   782 PWs)   bands (ev):

   -19.8440  -9.6335  -7.7698  -7.3455   3.9757   5.0709   5.4443   5.5531

     occupation numbers 
     1.0000   1.0000   1.0000   1.0000   0.0000   0.0000   0.0000   0.0000

          k = 0.1071 0.3505 0.0000 (   782 PWs)   bands (ev):

   -19.3623 -10.5832  -8.1456  -6.7765   4.4111   4.6340   5.7959   6.1188

     occupation numbers 
     1.0000   1.0000   1.0000   1.0000   0.0000   0.0000   0.0000   0.0000

          k = 0.1071 0.3918 0.0000 (   786 PWs)   bands (ev):

   -18.8341 -11.5411  -8.4610  -6.1670   3.3405   5.3717   6.5266   6.8728

     occupation numbers 
     1.0000   1.0000   1.0000   1.0000   0.0000   0.0000   0.0000   0.0000

          k = 0.1071 0.4330 0.0000 (   781 PWs)   bands (ev):

   -18.2294 -12.4773  -8.7098  -5.5025   2.3149   6.1903   6.8933   7.3404

     occupation numbers 
     1.0000   1.0000   1.0000   1.0000   0.0000   0.0000   0.0000   0.0000

          k = 0.1071 0.4743 0.0000 (   777 PWs)   bands (ev):

   -17.5842 -13.4100  -8.8939  -4.8271   1.3873   6.7649   7.0942   8.2234

     occupation numbers 
     1.0000   1.0000   1.0000   1.0000   0.0000   0.0000   0.0000   0.0000

          k = 0.1071 0.5155 0.0000 (   777 PWs)   bands (ev):

   -16.9017 -14.2827  -9.0227  -4.2196   0.5744   6.6740   8.0621   9.1535

     occupation numbers 
     1.0000   1.0000   1.0000   1.0000   0.0000   0.0000   0.0000   0.0000

          k = 0.1071 0.5567 0.0000 (   774 PWs)   bands (ev):

   -16.2595 -15.0125  -9.0932  -3.8194   0.0831   6.6349   9.1009  10.2116

     occupation numbers 
     1.0000   1.0000   1.0000   1.0000   0.0000   0.0000   0.0000   0.0000

          k = 0.1429 0.2474 0.0000 (   785 PWs)   bands (ev):

   -20.2920  -8.5239  -7.8650  -7.4730   3.3576   4.4912   4.8116   6.6436

     occupation numbers 
     1.0000   1.0000   1.0000   1.0000   0.0000   0.0000   0.0000   0.0000

          k = 0.1429 0.2887 0.0000 (   785 PWs)   bands (ev):

   -19.9055  -9.2933  -8.0141  -7.4084   3.8934   5.0227   5.3602   5.7105

     occupation numbers 
     1.0000   1.0000   1.0000   1.0000   0.0000   0.0000   0.0000   0.0000

          k = 0.1429 0.3299 0.0000 (   784 PWs)   bands (ev):

   -19.4648 -10.1423  -8.4954  -6.8688   4.5096   4.7150   5.6527   5.9925

     occupation numbers 
     1.0000   1.0000   1.0000   1.0000   0.0000   0.0000   0.0000   0.0000

          k = 0.1429 0.3712 0.0000 (   776 PWs)   bands (ev):

   -18.9419 -11.0247  -8.8429  -6.2784   3.7301   5.2091   6.3445   6.7097

     occupation numbers 
     1.0000   1.0000   1.0000   1.0000   0.0000   0.0000   0.0000   0.0000

          k = 0.1429 0.4124 0.0000 (   776 PWs)   bands (ev):

   -18.3797 -11.9290  -9.1325  -5.6494   2.7065   5.9867   7.1093   7.5088

     occupation numbers 
     1.0000   1.0000   1.0000   1.0000   0.0000   0.0000   0.0000   0.0000

          k = 0.1429 0.4536 0.0000 (   776 PWs)   bands (ev):

   -17.7726 -12.8358  -9.3867  -4.9790   1.7527   6.8412   7.7481   7.9371

     occupation numbers 
     1.0000   1.0000   1.0000   1.0000   0.0000   0.0000   0.0000   0.0000

          k = 0.1429 0.4949 0.0000 (   776 PWs)   bands (ev):

   -17.1038 -13.7297  -9.5603  -4.3294   0.8929   7.6287   7.7787   8.7947

     occupation numbers 
     1.0000   1.0000   1.0000   1.0000   0.0000   0.0000   0.0000   0.0000

          k = 0.1429 0.5361 0.0000 (   776 PWs)   bands (ev):

   -16.4264 -14.5413  -9.6890  -3.7976   0.2386   7.5683   8.7776   9.5946

     occupation numbers 
     1.0000   1.0000   1.0000   1.0000   0.0000   0.0000   0.0000   0.0000

          k = 0.1429 0.5774 0.0000 (   776 PWs)   bands (ev):

   -15.9785 -15.0438  -9.7106  -3.5697  -0.0298   7.5411   9.7734   9.9151

     occupation numbers 
     1.0000   1.0000   1.0000   1.0000   0.0000   0.0000   0.0000   0.0000

          k = 0.1786 0.3093 0.0000 (   775 PWs)   bands (ev):

   -19.4846  -9.8896  -8.6790  -6.8983   4.4697   4.8463   5.5990   5.9506

     occupation numbers 
     1.0000   1.0000   1.0000   1.0000   0.0000   0.0000   0.0000   0.0000

          k = 0.1786 0.3505 0.0000 (   781 PWs)   bands (ev):

   -19.0165 -10.6407  -9.2389  -6.3457   3.9268   5.1257   6.2461   6.6250

     occupation numbers 
     1.0000   1.0000   1.0000   1.0000   0.0000   0.0000   0.0000   0.0000

          k = 0.1786 0.3918 0.0000 (   783 PWs)   bands (ev):

   -18.4816 -11.4725  -9.6501  -5.7384   2.9902   5.8626   6.9621   7.3838

     occupation numbers 
     1.0000   1.0000   1.0000   1.0000   0.0000   0.0000   0.0000   0.0000

          k = 0.1786 0.4330 0.0000 (   783 PWs)   bands (ev):

   -17.8853 -12.3077  -9.9591  -5.0909   2.0495   6.6790   7.7299   8.2257

     occupation numbers 
     1.0000   1.0000   1.0000   1.0000   0.0000   0.0000   0.0000   0.0000

          k = 0.1786 0.4743 0.0000 (   778 PWs)   bands (ev):

   -17.2456 -13.1669 -10.1741  -4.4076   1.1774   7.5708   8.5080   8.7267

     occupation numbers 
     1.0000   1.0000   1.0000   1.0000   0.0000   0.0000   0.0000   0.0000

          k = 0.1786 0.5155 0.0000 (   780 PWs)   bands (ev):

   -16.5734 -14.0071 -10.3217  -3.7971   0.4086   8.5323   8.6325   9.1610

     occupation numbers 
     1.0000   1.0000   1.0000   1.0000   0.0000   0.0000   0.0000   0.0000

          k = 0.1786 0.5567 0.0000 (   780 PWs)   bands (ev):

   -15.9500 -14.7133 -10.3940  -3.3914  -0.0667   8.5944   9.4943   9.5545

     occupation numbers 
     1.0000   1.0000   1.0000   1.0000   0.0000   0.0000   0.0000   0.0000

          k = 0.2143 0.3712 0.0000 (   775 PWs)   bands (ev):

   -18.4964 -11.2210  -9.8645  -5.7617   3.1221   5.8232   6.9123   7.3420

     occupation numbers 
     1.0000   1.0000   1.0000   1.0000   0.0000   0.0000   0.0000   0.0000

          k = 0.2143 0.4124 0.0000 (   787 PWs)   bands (ev):

   -17.9579 -11.9158 -10.3846  -5.1441   2.2277   6.5954   7.6200   8.1414

     occupation numbers 
     1.0000   1.0000   1.0000   1.0000   0.0000   0.0000   0.0000   0.0000

          k = 0.2143 0.4536 0.0000 (   783 PWs)   bands (ev):

   -17.3357 -12.6546 -10.7236  -4.4759   1.3807   7.4477   8.3094   9.0249

     occupation numbers 
     1.0000   1.0000   1.0000   1.0000   0.0000   0.0000   0.0000   0.0000

          k = 0.2143 0.4949 0.0000 (   778 PWs)   bands (ev):

   -16.6818 -13.4419 -10.9288  -3.8106   0.6019   8.3697   8.8128   9.8126

     occupation numbers 
     1.0000   1.0000   1.0000   1.0000   0.0000   0.0000   0.0000   0.0000

          k = 0.2143 0.5361 0.0000 (   780 PWs)   bands (ev):

   -16.0206 -14.2067 -11.0709  -3.2536  -0.0348   9.0060   9.3528   9.7399

     occupation numbers 
     1.0000   1.0000   1.0000   1.0000   0.0000   0.0000   0.0000   0.0000

          k = 0.2143 0.5774 0.0000 (   786 PWs)   bands (ev):

   -15.5928 -14.6869 -11.1228  -3.0181  -0.3202   9.0345   9.7020  10.3041

     occupation numbers 
     1.0000   1.0000   1.0000   1.0000   0.0000   0.0000   0.0000   0.0000

          k = 0.2500 0.4330 0.0000 (   781 PWs)   bands (ev):

   -17.3656 -12.4008 -10.9932  -4.4891   1.4807   7.4065   8.2387   8.9829

     occupation numbers 
     1.0000   1.0000   1.0000   1.0000   0.0000   0.0000   0.0000   0.0000

          k = 0.2500 0.4743 0.0000 (   779 PWs)   bands (ev):

   -16.7371 -13.0052 -11.4071  -3.8289   0.7277   8.2877   8.6119   9.9060

     occupation numbers 
     1.0000   1.0000   1.0000   1.0000   0.0000   0.0000   0.0000   0.0000

          k = 0.2500 0.5155 0.0000 (   778 PWs)   bands (ev):

   -16.0801 -13.6931 -11.6554  -3.1825   0.0211   8.6658   9.2310  10.8752

     occupation numbers 
     1.0000   1.0000   1.0000   1.0000   0.0000   0.0000   0.0000   0.0000

          k = 0.2500 0.5567 0.0000 (   780 PWs)   bands (ev):

   -15.4666 -14.3398 -11.7768  -2.7126  -0.4842   8.6242  10.2125  10.8234

     occupation numbers 
     1.0000   1.0000   1.0000   1.0000   0.0000   0.0000   0.0000   0.0000

          k = 0.2857 0.4949 0.0000 (   777 PWs)   bands (ev):

   -16.1036 -13.4314 -11.9468  -3.1483   0.0459   8.5436   9.1908  10.8669

     occupation numbers 
     1.0000   1.0000   1.0000   1.0000   0.0000   0.0000   0.0000   0.0000

          k = 0.2857 0.5361 0.0000 (   772 PWs)   bands (ev):

   -15.4495 -13.9367 -12.2576  -2.5168  -0.5756   8.3930  10.1371  11.6785

     occupation numbers 
     1.0000   1.0000   1.0000   1.0000   0.0000   0.0000   0.0000   0.0000

          k = 0.2857 0.5774 0.0000 (   770 PWs)   bands (ev):

   -15.0131 -14.3506 -12.3386  -2.1838  -0.9092   8.3291  10.9972  11.1497

     occupation numbers 
     1.0000   1.0000   1.0000   1.0016   0.0000   0.0000   0.0000   0.0000

          k = 0.3214 0.5567 0.0000 (   771 PWs)   bands (ev):

   -14.8724 -14.2850 -12.6103  -1.9025  -1.1722   8.2233  11.0193  11.6610

     occupation numbers 
     1.0000   1.0000   1.0000   0.9984   0.0000   0.0000   0.0000   0.0000

     the Fermi energy is    -1.7777 ev

!    total energy              =     -22.15283829 Ry
     estimated scf accuracy    <       0.00000035 Ry
     smearing contrib. (-TS)   =       0.00001304 Ry
     internal energy E=F+TS    =     -22.15285133 Ry

     The total energy is F=E-TS. E is the sum of the following terms:
     one-electron contribution =    -153.93722037 Ry
     hartree contribution      =      78.21367158 Ry
     xc contribution           =      -6.87203862 Ry
     ewald contribution        =      60.44273608 Ry

     convergence has been achieved in   4 iterations

     Forces acting on atoms (cartesian axes, Ry/au):

     atom    1 type  1   force =     0.00000000    0.00000000    0.00000000
     atom    2 type  1   force =     0.00000000   -0.00000000    0.00000000
     The non-local contrib.  to forces
     atom    1 type  1   force =     0.00000000   -0.00000000   -0.00000000
     atom    2 type  1   force =     0.00000000    0.00000000    0.00000000
     The ionic contribution  to forces
     atom    1 type  1   force =    -0.00000001    0.00000000   -0.00000000
     atom    2 type  1   force =     0.00000001   -0.00000000   -0.00000000
     The local contribution  to forces
     atom    1 type  1   force =    -0.00000000   -0.00000000    0.00000000
     atom    2 type  1   force =    -0.00000000    0.00000000    0.00000000
     The core correction contribution to forces
     atom    1 type  1   force =     0.00000000    0.00000000    0.00000000
     atom    2 type  1   force =     0.00000000    0.00000000    0.00000000
     The Hubbard contrib.    to forces
     atom    1 type  1   force =     0.00000000    0.00000000    0.00000000
     atom    2 type  1   force =     0.00000000    0.00000000    0.00000000
     The SCF correction term to forces
     atom    1 type  1   force =     0.00000000   -0.00000000   -0.00000000
     atom    2 type  1   force =    -0.00000000    0.00000000   -0.00000000

     Total force =     0.000000     Total SCF correction =     0.000000


     Computing stress (Cartesian axis) and pressure

          total   stress  (Ry/bohr**3)                   (kbar)     P=     -163.25
  -0.00087781   0.00000000   0.00000000         -129.13        0.00        0.00
   0.00000000  -0.00087781  -0.00000000            0.00     -129.13       -0.00
   0.00000000  -0.00000000  -0.00157370            0.00       -0.00     -231.50

     kinetic stress (kbar)   2741.41      0.00      0.00
                                0.00   2741.41      0.00
                                0.00      0.00   3007.81

     local   stress (kbar) -48025.62      0.00      0.00
                                0.00 -48025.62     -0.00
                                0.00     -0.00  46863.30

     nonloc. stress (kbar)    885.44     -0.00      0.00
                               -0.00    885.44      0.00
                                0.00      0.00    816.45

     hartree stress (kbar)  22036.66      0.00     -0.00
                                0.00  22036.66      0.00
                               -0.00      0.00 -21836.17

     exc-cor stress (kbar)   -600.52      0.00      0.00
                                0.00   -600.52      0.00
                                0.00      0.00   -600.52

     corecor stress (kbar)      0.00      0.00      0.00
                                0.00      0.00      0.00
                                0.00      0.00      0.00

     ewald   stress (kbar)  22833.51     -0.00     -0.00
                               -0.00  22833.51     -0.00
                               -0.00     -0.00 -28482.36

     hubbard stress (kbar)      0.00      0.00      0.00
                                0.00      0.00      0.00
                                0.00      0.00      0.00

     DFT-D   stress (kbar)      0.00      0.00      0.00
                                0.00      0.00      0.00
                                0.00      0.00      0.00

     XDM     stress (kbar)      0.00      0.00      0.00
                                0.00      0.00      0.00
                                0.00      0.00      0.00

     dft-nl  stress (kbar)      0.00      0.00      0.00
                                0.00      0.00      0.00
                                0.00      0.00      0.00

     TS-vdW  stress (kbar)      0.00      0.00      0.00
                                0.00      0.00      0.00
                                0.00      0.00      0.00



     Writing output data file ./tmp/graphene.save/

     init_run     :      0.45s CPU      0.19s WALL (       1 calls)
     electrons    :      5.11s CPU      2.08s WALL (       1 calls)
     forces       :      0.03s CPU      0.01s WALL (       1 calls)
     stress       :      0.05s CPU      0.03s WALL (       1 calls)

     Called by init_run:
     wfcinit      :      0.43s CPU      0.18s WALL (       1 calls)
     wfcinit:atom :      0.03s CPU      0.01s WALL (      80 calls)
     wfcinit:wfcr :      0.34s CPU      0.14s WALL (      80 calls)
     potinit      :      0.00s CPU      0.00s WALL (       1 calls)
     hinit0       :      0.00s CPU      0.00s WALL (       1 calls)

     Called by electrons:
     c_bands      :      4.48s CPU      1.81s WALL (       4 calls)
     sum_band     :      0.62s CPU      0.25s WALL (       4 calls)
     v_of_rho     :      0.01s CPU      0.01s WALL (       5 calls)
     v_h          :      0.00s CPU      0.00s WALL (       5 calls)
     v_xc         :      0.01s CPU      0.00s WALL (       5 calls)
     mix_rho      :      0.00s CPU      0.00s WALL (       4 calls)

     Called by c_bands:
     init_us_2    :      0.05s CPU      0.02s WALL (     880 calls)
     cegterg      :      4.42s CPU      1.79s WALL (     320 calls)

     Called by sum_band:
     sum_band:wei :      0.01s CPU      0.00s WALL (       4 calls)
     sum_band:loo :      0.61s CPU      0.25s WALL (       4 calls)
     sum_band:buf :      0.01s CPU      0.00s WALL (     320 calls)
     sum_band:ini :      0.02s CPU      0.01s WALL (     320 calls)

     Called by *egterg:
     cdiaghg      :      0.35s CPU      0.14s WALL (    2037 calls)
     cegterg:over :      0.28s CPU      0.11s WALL (    1717 calls)
     cegterg:upda :      0.16s CPU      0.08s WALL (    1717 calls)
     cegterg:last :      0.18s CPU      0.11s WALL (     889 calls)
     h_psi        :      3.52s CPU      1.37s WALL (    2117 calls)
     g_psi        :      0.07s CPU      0.03s WALL (    1717 calls)

     Called by h_psi:
     h_psi:calbec :      0.05s CPU      0.02s WALL (    2117 calls)
     vloc_psi     :      3.40s CPU      1.33s WALL (    2117 calls)
     add_vuspsi   :      0.03s CPU      0.01s WALL (    2117 calls)

     General routines
     calbec       :      0.05s CPU      0.02s WALL (    2517 calls)
     fft          :      0.01s CPU      0.00s WALL (      19 calls)
     ffts         :      0.00s CPU      0.00s WALL (       4 calls)
     fftw         :      2.69s CPU      1.06s WALL (   20240 calls)

     Parallel routines

     PWSCF        :      5.67s CPU      2.35s WALL


   This run was terminated on:  17:16:52  18Jan2024            

=------------------------------------------------------------------------------=
   JOB DONE.
=------------------------------------------------------------------------------=
