
     Program PWSCF v.6.7MaX starts on 18Jan2024 at 17:16:41 

     This program is part of the open-source Quantum ESPRESSO suite
     for quantum simulation of materials; please cite
         "P. Giannozzi et al., J. Phys.:Condens. Matter 21 395502 (2009);
         "P. Giannozzi et al., J. Phys.:Condens. Matter 29 465901 (2017);
          URL http://www.quantum-espresso.org", 
     in publications or presentations arising from this work. More details at
     http://www.quantum-espresso.org/quote

     Parallel version (MPI), running on     1 processors

     MPI processes distributed on     1 nodes
     Waiting for input...
     Reading input from standard input

     Current dimensions of program PWSCF are:
     Max number of different atomic species (ntypx) = 10
     Max number of k-points (npk) =  40000
     Max angular momentum in pseudopotentials (lmaxx) =  3

     Subspace diagonalization in iterative solution of the eigenvalue problem:
     a serial algorithm will be used


     G-vector sticks info
     --------------------
     sticks:   dense  smooth     PW     G-vecs:    dense   smooth      PW
     Sum         121     121     37                 6307     6307    1307



     bravais-lattice index     =            4
     lattice parameter (alat)  =       4.6350  a.u.
     unit-cell volume          =     517.4056 (a.u.)^3
     number of atoms/cell      =            2
     number of atomic types    =            1
     number of electrons       =         8.00
     number of Kohn-Sham states=            8
     kinetic-energy cutoff     =      20.0000  Ry
     charge density cutoff     =      80.0000  Ry
     scf convergence threshold =      1.0E-06
     mixing beta               =       0.7000
     number of iterations used =            8  plain     mixing
     Exchange-correlation=  SLA  PZ   NOGX NOGC
                           (   1   1   0   0   0   0   0)

     celldm(1)=   4.635000  celldm(2)=   0.000000  celldm(3)=   6.000000
     celldm(4)=   0.000000  celldm(5)=   0.000000  celldm(6)=   0.000000

     crystal axes: (cart. coord. in units of alat)
               a(1) = (   1.000000   0.000000   0.000000 )  
               a(2) = (  -0.500000   0.866025   0.000000 )  
               a(3) = (   0.000000   0.000000   6.000000 )  

     reciprocal axes: (cart. coord. in units 2 pi/alat)
               b(1) = (  1.000000  0.577350 -0.000000 )  
               b(2) = (  0.000000  1.154701  0.000000 )  
               b(3) = (  0.000000 -0.000000  0.166667 )  


     PseudoPot. # 1 for C  read from file:
     ../../../Pseudo/C.pz-vbc.UPF
     MD5 check sum: ab53dd623bfeb79c5a7b057bc96eae20
     Pseudo is Norm-conserving, Zval =  4.0
     Generated by new atomic code, or converted to UPF format
     Using radial grid of  269 points,  1 beta functions with: 
                l(1) =   0

     atomic species   valence    mass     pseudopotential
        C              4.00    12.01100     C ( 1.00)

     24 Sym. Ops., with inversion, found (12 have fractional translation)


                                    s                        frac. trans.

      isym =  1     identity                                     

 cryst.   s( 1) = (     1          0          0      )
                  (     0          1          0      )
                  (     0          0          1      )

 cart.    s( 1) = (  1.0000000  0.0000000  0.0000000 )
                  (  0.0000000  1.0000000  0.0000000 )
                  (  0.0000000  0.0000000  1.0000000 )


      isym =  2     180 deg rotation - cart. axis [0,0,1]        

 cryst.   s( 2) = (    -1          0          0      )    f =( -0.3333333 )
                  (     0         -1          0      )       (  0.3333333 )
                  (     0          0          1      )       (  0.0000000 )

 cart.    s( 2) = ( -1.0000000  0.0000000  0.0000000 )    f =( -0.5000000 )
                  (  0.0000000 -1.0000000  0.0000000 )       (  0.2886751 )
                  (  0.0000000  0.0000000  1.0000000 )       (  0.0000000 )


      isym =  3     180 deg rotation - cart. axis [0,1,0]        

 cryst.   s( 3) = (    -1          0          0      )
                  (     1          1          0      )
                  (     0          0         -1      )

 cart.    s( 3) = ( -1.0000000  0.0000000  0.0000000 )
                  (  0.0000000  1.0000000  0.0000000 )
                  (  0.0000000  0.0000000 -1.0000000 )


      isym =  4     180 deg rotation - cart. axis [1,0,0]        

 cryst.   s( 4) = (     1          0          0      )    f =( -0.3333333 )
                  (    -1         -1          0      )       (  0.3333333 )
                  (     0          0         -1      )       (  0.0000000 )

 cart.    s( 4) = (  1.0000000  0.0000000  0.0000000 )    f =( -0.5000000 )
                  (  0.0000000 -1.0000000  0.0000000 )       (  0.2886751 )
                  (  0.0000000  0.0000000 -1.0000000 )       (  0.0000000 )


      isym =  5      60 deg rotation - cryst. axis [0,0,1]       

 cryst.   s( 5) = (     1          1          0      )    f =( -0.3333333 )
                  (    -1          0          0      )       (  0.3333333 )
                  (     0          0          1      )       (  0.0000000 )

 cart.    s( 5) = (  0.5000000 -0.8660254  0.0000000 )    f =( -0.5000000 )
                  (  0.8660254  0.5000000  0.0000000 )       (  0.2886751 )
                  (  0.0000000  0.0000000  1.0000000 )       (  0.0000000 )


      isym =  6      60 deg rotation - cryst. axis [0,0,-1]      

 cryst.   s( 6) = (     0         -1          0      )    f =( -0.3333333 )
                  (     1          1          0      )       (  0.3333333 )
                  (     0          0          1      )       (  0.0000000 )

 cart.    s( 6) = (  0.5000000  0.8660254  0.0000000 )    f =( -0.5000000 )
                  ( -0.8660254  0.5000000  0.0000000 )       (  0.2886751 )
                  (  0.0000000  0.0000000  1.0000000 )       (  0.0000000 )


      isym =  7     120 deg rotation - cryst. axis [0,0,1]       

 cryst.   s( 7) = (     0          1          0      )
                  (    -1         -1          0      )
                  (     0          0          1      )

 cart.    s( 7) = ( -0.5000000 -0.8660254  0.0000000 )
                  (  0.8660254 -0.5000000  0.0000000 )
                  (  0.0000000  0.0000000  1.0000000 )


      isym =  8     120 deg rotation - cryst. axis [0,0,-1]      

 cryst.   s( 8) = (    -1         -1          0      )
                  (     1          0          0      )
                  (     0          0          1      )

 cart.    s( 8) = ( -0.5000000  0.8660254  0.0000000 )
                  ( -0.8660254 -0.5000000  0.0000000 )
                  (  0.0000000  0.0000000  1.0000000 )


      isym =  9     180 deg rotation - cryst. axis [1,-1,0]      

 cryst.   s( 9) = (     0         -1          0      )
                  (    -1          0          0      )
                  (     0          0         -1      )

 cart.    s( 9) = (  0.5000000 -0.8660254  0.0000000 )
                  ( -0.8660254 -0.5000000  0.0000000 )
                  (  0.0000000  0.0000000 -1.0000000 )


      isym = 10     180 deg rotation - cryst. axis [2,1,0]       

 cryst.   s(10) = (     1          1          0      )
                  (     0         -1          0      )
                  (     0          0         -1      )

 cart.    s(10) = (  0.5000000  0.8660254  0.0000000 )
                  (  0.8660254 -0.5000000  0.0000000 )
                  (  0.0000000  0.0000000 -1.0000000 )


      isym = 11     180 deg rotation - cryst. axis [0,1,0]       

 cryst.   s(11) = (    -1         -1          0      )    f =( -0.3333333 )
                  (     0          1          0      )       (  0.3333333 )
                  (     0          0         -1      )       (  0.0000000 )

 cart.    s(11) = ( -0.5000000 -0.8660254  0.0000000 )    f =( -0.5000000 )
                  ( -0.8660254  0.5000000  0.0000000 )       (  0.2886751 )
                  (  0.0000000  0.0000000 -1.0000000 )       (  0.0000000 )


      isym = 12     180 deg rotation - cryst. axis [1,1,0]       

 cryst.   s(12) = (     0          1          0      )    f =( -0.3333333 )
                  (     1          0          0      )       (  0.3333333 )
                  (     0          0         -1      )       (  0.0000000 )

 cart.    s(12) = ( -0.5000000  0.8660254  0.0000000 )    f =( -0.5000000 )
                  (  0.8660254  0.5000000  0.0000000 )       (  0.2886751 )
                  (  0.0000000  0.0000000 -1.0000000 )       (  0.0000000 )


      isym = 13     inversion                                    

 cryst.   s(13) = (    -1          0          0      )    f =( -0.3333333 )
                  (     0         -1          0      )       (  0.3333333 )
                  (     0          0         -1      )       (  0.0000000 )

 cart.    s(13) = ( -1.0000000  0.0000000  0.0000000 )    f =( -0.5000000 )
                  (  0.0000000 -1.0000000  0.0000000 )       (  0.2886751 )
                  (  0.0000000  0.0000000 -1.0000000 )       (  0.0000000 )


      isym = 14     inv. 180 deg rotation - cart. axis [0,0,1]   

 cryst.   s(14) = (     1          0          0      )
                  (     0          1          0      )
                  (     0          0         -1      )

 cart.    s(14) = (  1.0000000  0.0000000  0.0000000 )
                  (  0.0000000  1.0000000  0.0000000 )
                  (  0.0000000  0.0000000 -1.0000000 )


      isym = 15     inv. 180 deg rotation - cart. axis [0,1,0]   

 cryst.   s(15) = (     1          0          0      )    f =( -0.3333333 )
                  (    -1         -1          0      )       (  0.3333333 )
                  (     0          0          1      )       (  0.0000000 )

 cart.    s(15) = (  1.0000000  0.0000000  0.0000000 )    f =( -0.5000000 )
                  (  0.0000000 -1.0000000  0.0000000 )       (  0.2886751 )
                  (  0.0000000  0.0000000  1.0000000 )       (  0.0000000 )


      isym = 16     inv. 180 deg rotation - cart. axis [1,0,0]   

 cryst.   s(16) = (    -1          0          0      )
                  (     1          1          0      )
                  (     0          0          1      )

 cart.    s(16) = ( -1.0000000  0.0000000  0.0000000 )
                  (  0.0000000  1.0000000  0.0000000 )
                  (  0.0000000  0.0000000  1.0000000 )


      isym = 17     inv.  60 deg rotation - cryst. axis [0,0,1]  

 cryst.   s(17) = (    -1         -1          0      )
                  (     1          0          0      )
                  (     0          0         -1      )

 cart.    s(17) = ( -0.5000000  0.8660254  0.0000000 )
                  ( -0.8660254 -0.5000000  0.0000000 )
                  (  0.0000000  0.0000000 -1.0000000 )


      isym = 18     inv.  60 deg rotation - cryst. axis [0,0,-1] 

 cryst.   s(18) = (     0          1          0      )
                  (    -1         -1          0      )
                  (     0          0         -1      )

 cart.    s(18) = ( -0.5000000 -0.8660254  0.0000000 )
                  (  0.8660254 -0.5000000  0.0000000 )
                  (  0.0000000  0.0000000 -1.0000000 )


      isym = 19     inv. 120 deg rotation - cryst. axis [0,0,1]  

 cryst.   s(19) = (     0         -1          0      )    f =( -0.3333333 )
                  (     1          1          0      )       (  0.3333333 )
                  (     0          0         -1      )       (  0.0000000 )

 cart.    s(19) = (  0.5000000  0.8660254  0.0000000 )    f =( -0.5000000 )
                  ( -0.8660254  0.5000000  0.0000000 )       (  0.2886751 )
                  (  0.0000000  0.0000000 -1.0000000 )       (  0.0000000 )


      isym = 20     inv. 120 deg rotation - cryst. axis [0,0,-1] 

 cryst.   s(20) = (     1          1          0      )    f =( -0.3333333 )
                  (    -1          0          0      )       (  0.3333333 )
                  (     0          0         -1      )       (  0.0000000 )

 cart.    s(20) = (  0.5000000 -0.8660254  0.0000000 )    f =( -0.5000000 )
                  (  0.8660254  0.5000000  0.0000000 )       (  0.2886751 )
                  (  0.0000000  0.0000000 -1.0000000 )       (  0.0000000 )


      isym = 21     inv. 180 deg rotation - cryst. axis [1,-1,0] 

 cryst.   s(21) = (     0          1          0      )    f =( -0.3333333 )
                  (     1          0          0      )       (  0.3333333 )
                  (     0          0          1      )       (  0.0000000 )

 cart.    s(21) = ( -0.5000000  0.8660254  0.0000000 )    f =( -0.5000000 )
                  (  0.8660254  0.5000000  0.0000000 )       (  0.2886751 )
                  (  0.0000000  0.0000000  1.0000000 )       (  0.0000000 )


      isym = 22     inv. 180 deg rotation - cryst. axis [2,1,0]  

 cryst.   s(22) = (    -1         -1          0      )    f =( -0.3333333 )
                  (     0          1          0      )       (  0.3333333 )
                  (     0          0          1      )       (  0.0000000 )

 cart.    s(22) = ( -0.5000000 -0.8660254  0.0000000 )    f =( -0.5000000 )
                  ( -0.8660254  0.5000000  0.0000000 )       (  0.2886751 )
                  (  0.0000000  0.0000000  1.0000000 )       (  0.0000000 )


      isym = 23     inv. 180 deg rotation - cryst. axis [0,1,0]  

 cryst.   s(23) = (     1          1          0      )
                  (     0         -1          0      )
                  (     0          0          1      )

 cart.    s(23) = (  0.5000000  0.8660254  0.0000000 )
                  (  0.8660254 -0.5000000  0.0000000 )
                  (  0.0000000  0.0000000  1.0000000 )


      isym = 24     inv. 180 deg rotation - cryst. axis [1,1,0]  

 cryst.   s(24) = (     0         -1          0      )
                  (    -1          0          0      )
                  (     0          0          1      )

 cart.    s(24) = (  0.5000000 -0.8660254  0.0000000 )
                  ( -0.8660254 -0.5000000  0.0000000 )
                  (  0.0000000  0.0000000  1.0000000 )


     point group D_6h(6/mmm)
     there are 12 classes
     the character table:

       E     2C6   2C3   C2    3C2'  3C2'' i     2S3   2S6   s_h   3s_d  3s_v 
A_1g   1.00  1.00  1.00  1.00  1.00  1.00  1.00  1.00  1.00  1.00  1.00  1.00
A_2g   1.00  1.00  1.00  1.00 -1.00 -1.00  1.00  1.00  1.00  1.00 -1.00 -1.00
B_1g   1.00 -1.00  1.00 -1.00  1.00 -1.00  1.00 -1.00  1.00 -1.00  1.00 -1.00
B_2g   1.00 -1.00  1.00 -1.00 -1.00  1.00  1.00 -1.00  1.00 -1.00 -1.00  1.00
E_1g   2.00  1.00 -1.00 -2.00  0.00  0.00  2.00  1.00 -1.00 -2.00  0.00  0.00
E_2g   2.00 -1.00 -1.00  2.00  0.00  0.00  2.00 -1.00 -1.00  2.00  0.00  0.00
A_1u   1.00  1.00  1.00  1.00  1.00  1.00 -1.00 -1.00 -1.00 -1.00 -1.00 -1.00
A_2u   1.00  1.00  1.00  1.00 -1.00 -1.00 -1.00 -1.00 -1.00 -1.00  1.00  1.00
B_1u   1.00 -1.00  1.00 -1.00  1.00 -1.00 -1.00  1.00 -1.00  1.00 -1.00  1.00
B_2u   1.00 -1.00  1.00 -1.00 -1.00  1.00 -1.00  1.00 -1.00  1.00  1.00 -1.00
E_1u   2.00  1.00 -1.00 -2.00  0.00  0.00 -2.00 -1.00  1.00  2.00  0.00  0.00
E_2u   2.00 -1.00 -1.00  2.00  0.00  0.00 -2.00  1.00  1.00 -2.00  0.00  0.00

     the symmetry operations in each class and the name of the first element:

     E        1
          identity                                               
     2C6      5    6
           60 deg rotation - cryst. axis [0,0,1]                 
     2C3      7    8
          120 deg rotation - cryst. axis [0,0,1]                 
     C2       2
          180 deg rotation - cart. axis [0,0,1]                  
     3C2'     4   12   11
          180 deg rotation - cart. axis [1,0,0]                  
     3C2''    3    9   10
          180 deg rotation - cart. axis [0,1,0]                  
     i       13
          inversion                                              
     2S3     17   18
          inv.  60 deg rotation - cryst. axis [0,0,1]            
     2S6     19   20
          inv. 120 deg rotation - cryst. axis [0,0,1]            
     s_h     14
          inv. 180 deg rotation - cart. axis [0,0,1]             
     3s_d    16   24   23
          inv. 180 deg rotation - cart. axis [1,0,0]             
     3s_v    15   21   22
          inv. 180 deg rotation - cart. axis [0,1,0]             

   Cartesian axes

     site n.     atom                  positions (alat units)
         1           C   tau(   1) = (   0.0000000   0.0000000   0.0000000  )
         2           C   tau(   2) = (  -0.0000000   0.5773503   0.0000000  )

   Crystallographic axes

     site n.     atom                  positions (cryst. coord.)
         1           C   tau(   1) = (  0.0000000  0.0000000  0.0000000  )
         2           C   tau(   2) = (  0.3333333  0.6666667  0.0000000  )

     number of k points=    44  Marzari-Vanderbilt smearing, width (Ry)=  0.0100
                       cart. coord. in units 2pi/alat
        k(    1) = (   0.0000000   0.0000000   0.0000000), wk =   0.0050000
        k(    2) = (   0.0000000   0.0577350   0.0000000), wk =   0.0300000
        k(    3) = (   0.0000000   0.1154701   0.0000000), wk =   0.0300000
        k(    4) = (   0.0000000   0.1732051   0.0000000), wk =   0.0300000
        k(    5) = (   0.0000000   0.2309401   0.0000000), wk =   0.0300000
        k(    6) = (   0.0000000   0.2886751   0.0000000), wk =   0.0300000
        k(    7) = (   0.0000000   0.3464102   0.0000000), wk =   0.0300000
        k(    8) = (   0.0000000   0.4041452   0.0000000), wk =   0.0300000
        k(    9) = (   0.0000000   0.4618802   0.0000000), wk =   0.0300000
        k(   10) = (   0.0000000   0.5196152   0.0000000), wk =   0.0300000
        k(   11) = (   0.0000000  -0.5773503   0.0000000), wk =   0.0150000
        k(   12) = (   0.0500000   0.0866025   0.0000000), wk =   0.0300000
        k(   13) = (   0.0500000   0.1443376   0.0000000), wk =   0.0600000
        k(   14) = (   0.0500000   0.2020726   0.0000000), wk =   0.0600000
        k(   15) = (   0.0500000   0.2598076   0.0000000), wk =   0.0600000
        k(   16) = (   0.0500000   0.3175426   0.0000000), wk =   0.0600000
        k(   17) = (   0.0500000   0.3752777   0.0000000), wk =   0.0600000
        k(   18) = (   0.0500000   0.4330127   0.0000000), wk =   0.0600000
        k(   19) = (   0.0500000   0.4907477   0.0000000), wk =   0.0600000
        k(   20) = (   0.0500000   0.5484828   0.0000000), wk =   0.0600000
        k(   21) = (   0.1000000   0.1732051   0.0000000), wk =   0.0300000
        k(   22) = (   0.1000000   0.2309401   0.0000000), wk =   0.0600000
        k(   23) = (   0.1000000   0.2886751   0.0000000), wk =   0.0600000
        k(   24) = (   0.1000000   0.3464102   0.0000000), wk =   0.0600000
        k(   25) = (   0.1000000   0.4041452   0.0000000), wk =   0.0600000
        k(   26) = (   0.1000000   0.4618802   0.0000000), wk =   0.0600000
        k(   27) = (   0.1000000   0.5196152   0.0000000), wk =   0.0600000
        k(   28) = (   0.1000000   0.5773503   0.0000000), wk =   0.0300000
        k(   29) = (   0.1500000   0.2598076   0.0000000), wk =   0.0300000
        k(   30) = (   0.1500000   0.3175426   0.0000000), wk =   0.0600000
        k(   31) = (   0.1500000   0.3752777   0.0000000), wk =   0.0600000
        k(   32) = (   0.1500000   0.4330127   0.0000000), wk =   0.0600000
        k(   33) = (   0.1500000   0.4907477   0.0000000), wk =   0.0600000
        k(   34) = (   0.1500000   0.5484828   0.0000000), wk =   0.0600000
        k(   35) = (   0.2000000   0.3464102   0.0000000), wk =   0.0300000
        k(   36) = (   0.2000000   0.4041452   0.0000000), wk =   0.0600000
        k(   37) = (   0.2000000   0.4618802   0.0000000), wk =   0.0600000
        k(   38) = (   0.2000000   0.5196152   0.0000000), wk =   0.0600000
        k(   39) = (   0.2000000   0.5773503   0.0000000), wk =   0.0300000
        k(   40) = (   0.2500000   0.4330127   0.0000000), wk =   0.0300000
        k(   41) = (   0.2500000   0.4907477   0.0000000), wk =   0.0600000
        k(   42) = (   0.2500000   0.5484828   0.0000000), wk =   0.0600000
        k(   43) = (   0.3000000   0.5196152   0.0000000), wk =   0.0300000
        k(   44) = (   0.3000000   0.5773503   0.0000000), wk =   0.0300000

                       cryst. coord.
        k(    1) = (   0.0000000   0.0000000   0.0000000), wk =   0.0050000
        k(    2) = (   0.0000000   0.0500000   0.0000000), wk =   0.0300000
        k(    3) = (   0.0000000   0.1000000   0.0000000), wk =   0.0300000
        k(    4) = (   0.0000000   0.1500000   0.0000000), wk =   0.0300000
        k(    5) = (   0.0000000   0.2000000   0.0000000), wk =   0.0300000
        k(    6) = (   0.0000000   0.2500000   0.0000000), wk =   0.0300000
        k(    7) = (   0.0000000   0.3000000   0.0000000), wk =   0.0300000
        k(    8) = (   0.0000000   0.3500000   0.0000000), wk =   0.0300000
        k(    9) = (   0.0000000   0.4000000   0.0000000), wk =   0.0300000
        k(   10) = (   0.0000000   0.4500000   0.0000000), wk =   0.0300000
        k(   11) = (   0.0000000  -0.5000000   0.0000000), wk =   0.0150000
        k(   12) = (   0.0500000   0.0500000   0.0000000), wk =   0.0300000
        k(   13) = (   0.0500000   0.1000000   0.0000000), wk =   0.0600000
        k(   14) = (   0.0500000   0.1500000   0.0000000), wk =   0.0600000
        k(   15) = (   0.0500000   0.2000000   0.0000000), wk =   0.0600000
        k(   16) = (   0.0500000   0.2500000   0.0000000), wk =   0.0600000
        k(   17) = (   0.0500000   0.3000000   0.0000000), wk =   0.0600000
        k(   18) = (   0.0500000   0.3500000   0.0000000), wk =   0.0600000
        k(   19) = (   0.0500000   0.4000000   0.0000000), wk =   0.0600000
        k(   20) = (   0.0500000   0.4500000   0.0000000), wk =   0.0600000
        k(   21) = (   0.1000000   0.1000000   0.0000000), wk =   0.0300000
        k(   22) = (   0.1000000   0.1500000   0.0000000), wk =   0.0600000
        k(   23) = (   0.1000000   0.2000000   0.0000000), wk =   0.0600000
        k(   24) = (   0.1000000   0.2500000   0.0000000), wk =   0.0600000
        k(   25) = (   0.1000000   0.3000000   0.0000000), wk =   0.0600000
        k(   26) = (   0.1000000   0.3500000   0.0000000), wk =   0.0600000
        k(   27) = (   0.1000000   0.4000000   0.0000000), wk =   0.0600000
        k(   28) = (   0.1000000   0.4500000   0.0000000), wk =   0.0300000
        k(   29) = (   0.1500000   0.1500000   0.0000000), wk =   0.0300000
        k(   30) = (   0.1500000   0.2000000   0.0000000), wk =   0.0600000
        k(   31) = (   0.1500000   0.2500000   0.0000000), wk =   0.0600000
        k(   32) = (   0.1500000   0.3000000   0.0000000), wk =   0.0600000
        k(   33) = (   0.1500000   0.3500000   0.0000000), wk =   0.0600000
        k(   34) = (   0.1500000   0.4000000   0.0000000), wk =   0.0600000
        k(   35) = (   0.2000000   0.2000000   0.0000000), wk =   0.0300000
        k(   36) = (   0.2000000   0.2500000   0.0000000), wk =   0.0600000
        k(   37) = (   0.2000000   0.3000000   0.0000000), wk =   0.0600000
        k(   38) = (   0.2000000   0.3500000   0.0000000), wk =   0.0600000
        k(   39) = (   0.2000000   0.4000000   0.0000000), wk =   0.0300000
        k(   40) = (   0.2500000   0.2500000   0.0000000), wk =   0.0300000
        k(   41) = (   0.2500000   0.3000000   0.0000000), wk =   0.0600000
        k(   42) = (   0.2500000   0.3500000   0.0000000), wk =   0.0600000
        k(   43) = (   0.3000000   0.3000000   0.0000000), wk =   0.0300000
        k(   44) = (   0.3000000   0.3500000   0.0000000), wk =   0.0300000

     Dense  grid:     6307 G-vectors     FFT dimensions: (  15,  15,  80)

     Dynamical RAM for                 wfc:       0.10 MB

     Dynamical RAM for     wfc (w. buffer):       4.29 MB

     Dynamical RAM for           str. fact:       0.10 MB

     Dynamical RAM for           local pot:       0.00 MB

     Dynamical RAM for          nlocal pot:       0.02 MB

     Dynamical RAM for                qrad:       0.01 MB

     Dynamical RAM for          rho,v,vnew:       0.70 MB

     Dynamical RAM for               rhoin:       0.23 MB

     Dynamical RAM for            rho*nmix:       1.54 MB

     Dynamical RAM for           G-vectors:       0.41 MB

     Dynamical RAM for          h,s,v(r/c):       0.01 MB

     Dynamical RAM for          <psi|beta>:       0.00 MB

     Dynamical RAM for                 psi:       0.19 MB

     Dynamical RAM for                hpsi:       0.19 MB

     Dynamical RAM for      wfcinit/wfcrot:       0.19 MB

     Estimated static dynamical RAM per process >       8.18 MB

     Estimated max dynamical RAM per process >       8.57 MB

     Initial potential from superposition of free atoms

     starting charge    7.99994, renormalised to    8.00000

     negative rho (up, down):  6.623E-03 0.000E+00
     Starting wfcs are    8 randomized atomic wfcs

     total cpu time spent up to now is        0.1 secs

     Self-consistent Calculation

     iteration #  1     ecut=    20.00 Ry     beta= 0.70
     Davidson diagonalization with overlap
     ethr =  1.00E-02,  avg # of iterations =  6.6

     negative rho (up, down):  1.716E-03 0.000E+00

     total cpu time spent up to now is        0.4 secs

     total energy              =     -22.13471993 Ry
     estimated scf accuracy    <       0.13864235 Ry

     iteration #  2     ecut=    20.00 Ry     beta= 0.70
     Davidson diagonalization with overlap
     ethr =  1.73E-03,  avg # of iterations =  3.4

     negative rho (up, down):  2.840E-04 0.000E+00

     total cpu time spent up to now is        0.7 secs

     total energy              =     -22.15136029 Ry
     estimated scf accuracy    <       0.00355603 Ry

     iteration #  3     ecut=    20.00 Ry     beta= 0.70
     Davidson diagonalization with overlap
     ethr =  4.45E-05,  avg # of iterations =  8.1

     total cpu time spent up to now is        1.0 secs

     total energy              =     -22.15153582 Ry
     estimated scf accuracy    <       0.00020138 Ry

     iteration #  4     ecut=    20.00 Ry     beta= 0.70
     Davidson diagonalization with overlap
     c_bands:  1 eigenvalues not converged
     ethr =  2.52E-06,  avg # of iterations =  4.2

     total cpu time spent up to now is        1.2 secs

     End of self-consistent calculation

          k = 0.0000 0.0000 0.0000 (   801 PWs)   bands (ev):

   -21.7431  -9.6418  -4.6324  -4.6324   1.3756   2.4935   2.7870   4.8425

     occupation numbers 
     1.0000   1.0000   1.0000   1.0000   0.0000   0.0000   0.0000   0.0000

          k = 0.0000 0.0577 0.0000 (   795 PWs)   bands (ev):

   -21.6777  -9.5631  -4.8664  -4.7509   1.4569   2.5760   2.8698   4.9245

     occupation numbers 
     1.0000   1.0000   1.0000   1.0000   0.0000   0.0000   0.0000   0.0000

          k = 0.0000 0.1155 0.0000 (   795 PWs)   bands (ev):

   -21.4951  -9.3617  -5.5772  -5.1169   1.7008   2.8200   3.1181   5.1653

     occupation numbers 
     1.0000   1.0000   1.0000   1.0000   0.0000   0.0000   0.0000   0.0000

          k = 0.0000 0.1732 0.0000 (   796 PWs)   bands (ev):

   -21.1929  -8.9988  -6.6446  -5.6101   2.1063   3.2288   3.5316   5.5695

     occupation numbers 
     1.0000   1.0000   1.0000   1.0000   0.0000   0.0000   0.0000   0.0000

          k = 0.0000 0.2309 0.0000 (   782 PWs)   bands (ev):

   -20.7704  -8.4716  -7.8178  -6.1475   2.6730   3.8007   4.1105   6.1317

     occupation numbers 
     1.0000   1.0000   1.0000   1.0000   0.0000   0.0000   0.0000   0.0000

          k = 0.0000 0.2887 0.0000 (   780 PWs)   bands (ev):

   -20.2384  -9.1597  -7.8332  -6.7702   3.4004   4.5218   4.8541   6.3503

     occupation numbers 
     1.0000   1.0000   1.0000   1.0000   0.0000   0.0000   0.0000   0.0000

          k = 0.0000 0.3464 0.0000 (   770 PWs)   bands (ev):

   -19.5784 -10.5199  -7.2231  -7.0643   4.2887   4.6907   5.5232   5.7570

     occupation numbers 
     1.0000   1.0000   1.0000   1.0000   0.0000   0.0000   0.0000   0.0000

          k = 0.0000 0.4041 0.0000 (   780 PWs)   bands (ev):

   -18.8511 -11.9313  -7.6475  -6.1952   3.1708   5.3244   5.7096   6.5246

     occupation numbers 
     1.0000   1.0000   1.0000   1.0000   0.0000   0.0000   0.0000   0.0000

          k = 0.0000 0.4619 0.0000 (   792 PWs)   bands (ev):

   -17.9955 -13.2946  -7.9895  -5.2812   1.7010   5.4605   6.5420   7.7303

     occupation numbers 
     1.0000   1.0000   1.0000   1.0000   0.0000   0.0000   0.0000   0.0000

          k = 0.0000 0.5196 0.0000 (   788 PWs)   bands (ev):

   -17.0198 -14.5490  -8.1581  -4.4426   0.5414   5.3268   7.8974   9.0883

     occupation numbers 
     1.0000   1.0000   1.0000   1.0000   0.0000   0.0000   0.0000   0.0000

          k = 0.0000-0.5774 0.0000 (   782 PWs)   bands (ev):

   -16.3015 -15.3672  -8.2101  -4.0309   0.0703   5.3056   9.3325   9.4627

     occupation numbers 
     1.0000   1.0000   1.0000   1.0000   0.0000   0.0000   0.0000   0.0000

          k = 0.0500 0.0866 0.0000 (   791 PWs)   bands (ev):

   -21.5534  -9.4259  -5.2985  -4.9958   1.6197   2.7390   3.0354   5.0854

     occupation numbers 
     1.0000   1.0000   1.0000   1.0000   0.0000   0.0000   0.0000   0.0000

          k = 0.0500 0.1443 0.0000 (   795 PWs)   bands (ev):

   -21.3083  -9.1435  -6.1666  -5.5312   1.9448   3.0654   3.3664   5.4084

     occupation numbers 
     1.0000   1.0000   1.0000   1.0000   0.0000   0.0000   0.0000   0.0000

          k = 0.0500 0.2021 0.0000 (   782 PWs)   bands (ev):

   -20.9442  -8.6860  -7.2168  -6.0736   2.4308   3.5575   3.8626   5.8949

     occupation numbers 
     1.0000   1.0000   1.0000   1.0000   0.0000   0.0000   0.0000   0.0000

          k = 0.0500 0.2598 0.0000 (   780 PWs)   bands (ev):

   -20.4760  -8.4751  -8.1151  -6.6599   3.0774   4.2053   4.5237   6.5053

     occupation numbers 
     1.0000   1.0000   1.0000   1.0000   0.0000   0.0000   0.0000   0.0000

          k = 0.0500 0.3175 0.0000 (   774 PWs)   bands (ev):

   -19.8874  -9.8144  -7.4050  -7.1886   3.8847   4.9571   5.3499   5.5976

     occupation numbers 
     1.0000   1.0000   1.0000   1.0000   0.0000   0.0000   0.0000   0.0000

          k = 0.0500 0.3753 0.0000 (   775 PWs)   bands (ev):

   -19.1873 -11.2045  -7.6427  -6.5887   3.9036   4.8510   6.0377   6.1325

     occupation numbers 
     1.0000   1.0000   1.0000   1.0000   0.0000   0.0000   0.0000   0.0000

          k = 0.0500 0.4330 0.0000 (   775 PWs)   bands (ev):

   -18.3754 -12.5788  -8.0116  -5.6792   2.4273   5.8602   6.0063   7.1597

     occupation numbers 
     1.0000   1.0000   1.0000   1.0000   0.0000   0.0000   0.0000   0.0000

          k = 0.0500 0.4907 0.0000 (   782 PWs)   bands (ev):

   -17.4651 -13.9005  -8.2592  -4.7772   1.0826   5.6973   7.2602   8.4392

     occupation numbers 
     1.0000   1.0000   1.0000   1.0000   0.0000   0.0000   0.0000   0.0000

          k = 0.0500 0.5485 0.0000 (   782 PWs)   bands (ev):

   -16.5267 -15.0358  -8.3928  -4.0908   0.1953   5.6179   8.6841   9.8501

     occupation numbers 
     1.0000   1.0000   1.0000   1.0000   0.0000   0.0000   0.0000   0.0000

          k = 0.1000 0.1732 0.0000 (   803 PWs)   bands (ev):

   -21.0192  -8.7854  -6.9876  -6.1975   2.3492   3.4734   3.7798   5.8114

     occupation numbers 
     1.0000   1.0000   1.0000   1.0000   0.0000   0.0000   0.0000   0.0000

          k = 0.1000 0.2309 0.0000 (   782 PWs)   bands (ev):

   -20.6051  -8.2622  -7.9139  -6.8495   2.9151   4.0452   4.3584   6.3741

     occupation numbers 
     1.0000   1.0000   1.0000   1.0000   0.0000   0.0000   0.0000   0.0000

          k = 0.1000 0.2887 0.0000 (   780 PWs)   bands (ev):

   -20.0816  -9.1616  -7.6249  -7.4796   3.6417   4.7675   5.1023   6.0942

     occupation numbers 
     1.0000   1.0000   1.0000   1.0000   0.0000   0.0000   0.0000   0.0000

          k = 0.1000 0.3464 0.0000 (   780 PWs)   bands (ev):

   -19.4417 -10.4909  -8.0071  -6.8635   4.5287   4.5599   5.7010   6.0111

     occupation numbers 
     1.0000   1.0000   1.0000   1.0000   0.0000   0.0000   0.0000   0.0000

          k = 0.1000 0.4041 0.0000 (   785 PWs)   bands (ev):

   -18.6833 -11.8416  -8.4509  -5.9951   3.0413   5.5734   6.7331   6.8432

     occupation numbers 
     1.0000   1.0000   1.0000   1.0000   0.0000   0.0000   0.0000   0.0000

          k = 0.1000 0.4619 0.0000 (   779 PWs)   bands (ev):

   -17.8150 -13.1529  -8.7363  -5.0665   1.6688   6.6302   6.7894   7.9241

     occupation numbers 
     1.0000   1.0000   1.0000   1.0000   0.0000   0.0000   0.0000   0.0000

          k = 0.1000 0.5196 0.0000 (   777 PWs)   bands (ev):

   -16.8577 -14.3902  -8.9213  -4.2006   0.5126   6.5039   8.1290   9.2319

     occupation numbers 
     1.0000   1.0000   1.0000   1.0000   0.0000   0.0000   0.0000   0.0000

          k = 0.1000 0.5774 0.0000 (   776 PWs)   bands (ev):

   -16.1336 -15.2041  -8.9901  -3.8036   0.0126   6.4597   9.5498   9.6864

     occupation numbers 
     1.0000   1.0000   1.0000   1.0000   0.0000   0.0000   0.0000   0.0000

          k = 0.1500 0.2598 0.0000 (   785 PWs)   bands (ev):

   -20.1402  -8.8201  -7.7143  -7.6881   3.5612   4.6945   5.0200   6.2814

     occupation numbers 
     1.0000   1.0000   1.0000   1.0000   0.0000   0.0000   0.0000   0.0000

          k = 0.1500 0.3175 0.0000 (   782 PWs)   bands (ev):

   -19.5631  -9.8893  -8.4677  -6.9907   4.3675   4.9465   5.5078   5.8463

     occupation numbers 
     1.0000   1.0000   1.0000   1.0000   0.0000   0.0000   0.0000   0.0000

          k = 0.1500 0.3753 0.0000 (   780 PWs)   bands (ev):

   -18.8531 -11.1342  -9.0088  -6.1768   3.5713   5.3340   6.4629   6.8381

     occupation numbers 
     1.0000   1.0000   1.0000   1.0000   0.0000   0.0000   0.0000   0.0000

          k = 0.1500 0.4330 0.0000 (   774 PWs)   bands (ev):

   -18.0455 -12.3515  -9.3933  -5.2781   2.1996   6.4550   7.5566   7.9777

     occupation numbers 
     1.0000   1.0000   1.0000   1.0000   0.0000   0.0000   0.0000   0.0000

          k = 0.1500 0.4907 0.0000 (   776 PWs)   bands (ev):

   -17.1343 -13.6230  -9.6826  -4.3426   0.9447   7.7245   7.8454   8.7332

     occupation numbers 
     1.0000   1.0000   1.0000   1.0000   0.0000   0.0000   0.0000   0.0000

          k = 0.1500 0.5485 0.0000 (   772 PWs)   bands (ev):

   -16.2008 -14.7249  -9.7993  -3.6412   0.0966   7.7653   9.1380   9.7352

     occupation numbers 
     1.0000   1.0000   1.0000   1.0000   0.0000   0.0000   0.0000   0.0000

          k = 0.2000 0.3464 0.0000 (   775 PWs)   bands (ev):

   -18.9218 -10.6981  -9.3845  -6.2369   3.7977   5.2526   6.3668   6.7555

     occupation numbers 
     1.0000   1.0000   1.0000   1.0000   0.0000   0.0000   0.0000   0.0000

          k = 0.2000 0.4041 0.0000 (   785 PWs)   bands (ev):

   -18.1695 -11.7348 -10.0943  -5.3889   2.5284   6.2939   7.3554   7.8289

     occupation numbers 
     1.0000   1.0000   1.0000   1.0000   0.0000   0.0000   0.0000   0.0000

          k = 0.2000 0.4619 0.0000 (   780 PWs)   bands (ev):

   -17.3211 -12.8324 -10.5058  -4.4501   1.3069   7.4856   8.3761   9.0650

     occupation numbers 
     1.0000   1.0000   1.0000   1.0000   0.0000   0.0000   0.0000   0.0000

          k = 0.2000 0.5196 0.0000 (   780 PWs)   bands (ev):

   -16.3733 -13.9938 -10.7447  -3.5758   0.2558   8.8193   9.0737   9.3076

     occupation numbers 
     1.0000   1.0000   1.0000   1.0000   0.0000   0.0000   0.0000   0.0000

          k = 0.2000 0.5774 0.0000 (   778 PWs)   bands (ev):

   -15.6715 -14.7577 -10.8167  -3.1484  -0.2248   9.2337   9.2742  10.1874

     occupation numbers 
     1.0000   1.0000   1.0000   1.0000   0.0000   0.0000   0.0000   0.0000

          k = 0.2500 0.4330 0.0000 (   781 PWs)   bands (ev):

   -17.3673 -12.4026 -10.9949  -4.4903   1.4794   7.4067   8.2387   8.9835

     occupation numbers 
     1.0000   1.0000   1.0000   1.0000   0.0000   0.0000   0.0000   0.0000

          k = 0.2500 0.4907 0.0000 (   776 PWs)   bands (ev):

   -16.4843 -13.2639 -11.5198  -3.5574   0.4369   8.6577   8.6607  10.2979

     occupation numbers 
     1.0000   1.0000   1.0000   1.0000   0.0000   0.0000   0.0000   0.0000

          k = 0.2500 0.5485 0.0000 (   780 PWs)   bands (ev):

   -15.5783 -14.2267 -11.7650  -2.7816  -0.4145   8.6308  10.0153  10.8285

     occupation numbers 
     1.0000   1.0000   1.0000   1.0000   0.0000   0.0000   0.0000   0.0000

          k = 0.3000 0.5196 0.0000 (   771 PWs)   bands (ev):

   -15.5816 -13.7780 -12.2495  -2.6249  -0.4679   8.3991   9.9399  11.6792

     occupation numbers 
     1.0000   1.0000   1.0000   1.0000   0.0000   0.0000   0.0000   0.0000

          k = 0.3000 0.5774 0.0000 (   771 PWs)   bands (ev):

   -14.8989 -14.3483 -12.5037  -2.0040  -1.0824   8.2585  11.1366  11.2862

     occupation numbers 
     1.0000   1.0000   1.0000   1.0000   0.0000   0.0000   0.0000   0.0000

     the Fermi energy is    -1.8786 ev

!    total energy              =     -22.15154677 Ry
     estimated scf accuracy    <       0.00000034 Ry
     smearing contrib. (-TS)   =       0.00002446 Ry
     internal energy E=F+TS    =     -22.15157124 Ry

     The total energy is F=E-TS. E is the sum of the following terms:
     one-electron contribution =    -153.93496160 Ry
     hartree contribution      =      78.21253604 Ry
     xc contribution           =      -6.87188176 Ry
     ewald contribution        =      60.44273608 Ry

     convergence has been achieved in   4 iterations

     Forces acting on atoms (cartesian axes, Ry/au):

     atom    1 type  1   force =     0.00000000    0.00000000    0.00000000
     atom    2 type  1   force =     0.00000000    0.00000000    0.00000000
     The non-local contrib.  to forces
     atom    1 type  1   force =     0.00000000    0.00000000   -0.00000000
     atom    2 type  1   force =     0.00000000    0.00000000    0.00000000
     The ionic contribution  to forces
     atom    1 type  1   force =    -0.00000001    0.00000000   -0.00000000
     atom    2 type  1   force =     0.00000001   -0.00000000   -0.00000000
     The local contribution  to forces
     atom    1 type  1   force =     0.00000000   -0.00000000   -0.00000000
     atom    2 type  1   force =    -0.00000000    0.00000000   -0.00000000
     The core correction contribution to forces
     atom    1 type  1   force =     0.00000000    0.00000000    0.00000000
     atom    2 type  1   force =     0.00000000    0.00000000    0.00000000
     The Hubbard contrib.    to forces
     atom    1 type  1   force =     0.00000000    0.00000000    0.00000000
     atom    2 type  1   force =     0.00000000    0.00000000    0.00000000
     The SCF correction term to forces
     atom    1 type  1   force =     0.00000000   -0.00000000    0.00000000
     atom    2 type  1   force =    -0.00000000    0.00000000    0.00000000

     Total force =     0.000000     Total SCF correction =     0.000000


     Computing stress (Cartesian axis) and pressure

          total   stress  (Ry/bohr**3)                   (kbar)     P=     -163.34
  -0.00087844  -0.00000000  -0.00000000         -129.22       -0.00       -0.00
  -0.00000000  -0.00087844   0.00000000           -0.00     -129.22        0.00
  -0.00000000   0.00000000  -0.00157419           -0.00        0.00     -231.57

     kinetic stress (kbar)   2740.79     -0.00      0.00
                               -0.00   2740.79      0.00
                                0.00      0.00   3007.33

     local   stress (kbar) -48024.95      0.00      0.00
                                0.00 -48024.95      0.00
                                0.00      0.00  46863.27

     nonloc. stress (kbar)    885.54      0.00      0.00
                                0.00    885.54      0.00
                                0.00      0.00    816.66

     hartree stress (kbar)  22036.40     -0.00      0.00
                               -0.00  22036.40     -0.00
                                0.00     -0.00 -21835.97

     exc-cor stress (kbar)   -600.51      0.00      0.00
                                0.00   -600.51      0.00
                                0.00      0.00   -600.51

     corecor stress (kbar)      0.00      0.00      0.00
                                0.00      0.00      0.00
                                0.00      0.00      0.00

     ewald   stress (kbar)  22833.51     -0.00     -0.00
                               -0.00  22833.51     -0.00
                               -0.00     -0.00 -28482.36

     hubbard stress (kbar)      0.00      0.00      0.00
                                0.00      0.00      0.00
                                0.00      0.00      0.00

     DFT-D   stress (kbar)      0.00      0.00      0.00
                                0.00      0.00      0.00
                                0.00      0.00      0.00

     XDM     stress (kbar)      0.00      0.00      0.00
                                0.00      0.00      0.00
                                0.00      0.00      0.00

     dft-nl  stress (kbar)      0.00      0.00      0.00
                                0.00      0.00      0.00
                                0.00      0.00      0.00

     TS-vdW  stress (kbar)      0.00      0.00      0.00
                                0.00      0.00      0.00
                                0.00      0.00      0.00



     Writing output data file ./tmp/graphene.save/

     init_run     :      0.21s CPU      0.09s WALL (       1 calls)
     electrons    :      2.74s CPU      1.14s WALL (       1 calls)
     forces       :      0.01s CPU      0.01s WALL (       1 calls)
     stress       :      0.06s CPU      0.02s WALL (       1 calls)

     Called by init_run:
     wfcinit      :      0.20s CPU      0.08s WALL (       1 calls)
     wfcinit:atom :      0.01s CPU      0.00s WALL (      44 calls)
     wfcinit:wfcr :      0.15s CPU      0.06s WALL (      44 calls)
     potinit      :      0.00s CPU      0.00s WALL (       1 calls)
     hinit0       :      0.00s CPU      0.00s WALL (       1 calls)

     Called by electrons:
     c_bands      :      2.38s CPU      0.99s WALL (       4 calls)
     sum_band     :      0.34s CPU      0.14s WALL (       4 calls)
     v_of_rho     :      0.01s CPU      0.01s WALL (       5 calls)
     v_h          :      0.00s CPU      0.00s WALL (       5 calls)
     v_xc         :      0.01s CPU      0.00s WALL (       5 calls)
     mix_rho      :      0.01s CPU      0.00s WALL (       4 calls)

     Called by c_bands:
     init_us_2    :      0.03s CPU      0.01s WALL (     484 calls)
     cegterg      :      2.35s CPU      0.98s WALL (     176 calls)

     Called by sum_band:
     sum_band:wei :      0.00s CPU      0.00s WALL (       4 calls)
     sum_band:loo :      0.33s CPU      0.14s WALL (       4 calls)
     sum_band:buf :      0.01s CPU      0.00s WALL (     176 calls)
     sum_band:ini :      0.01s CPU      0.00s WALL (     176 calls)

     Called by *egterg:
     cdiaghg      :      0.19s CPU      0.08s WALL (    1153 calls)
     cegterg:over :      0.14s CPU      0.06s WALL (     977 calls)
     cegterg:upda :      0.13s CPU      0.06s WALL (     977 calls)
     cegterg:last :      0.07s CPU      0.04s WALL (     486 calls)
     h_psi        :      1.85s CPU      0.75s WALL (    1197 calls)
     g_psi        :      0.04s CPU      0.01s WALL (     977 calls)

     Called by h_psi:
     h_psi:calbec :      0.02s CPU      0.01s WALL (    1197 calls)
     vloc_psi     :      1.79s CPU      0.73s WALL (    1197 calls)
     add_vuspsi   :      0.01s CPU      0.01s WALL (    1197 calls)

     General routines
     calbec       :      0.03s CPU      0.01s WALL (    1417 calls)
     fft          :      0.01s CPU      0.00s WALL (      19 calls)
     ffts         :      0.00s CPU      0.00s WALL (       4 calls)
     fftw         :      1.42s CPU      0.58s WALL (   11192 calls)

     Parallel routines

     PWSCF        :      3.09s CPU      1.30s WALL


   This run was terminated on:  17:16:43  18Jan2024            

=------------------------------------------------------------------------------=
   JOB DONE.
=------------------------------------------------------------------------------=
