
     Program PWSCF v.7.2 starts on 12Apr2024 at 17:12:12 

     This program is part of the open-source Quantum ESPRESSO suite
     for quantum simulation of materials; please cite
         "P. Giannozzi et al., J. Phys.:Condens. Matter 21 395502 (2009);
         "P. Giannozzi et al., J. Phys.:Condens. Matter 29 465901 (2017);
         "P. Giannozzi et al., J. Chem. Phys. 152 154105 (2020);
          URL http://www.quantum-espresso.org", 
     in publications or presentations arising from this work. More details at
     http://www.quantum-espresso.org/quote

     Parallel version (MPI & OpenMP), running on       8 processor cores
     Number of MPI processes:                 8
     Threads/MPI process:                     1

     MPI processes distributed on     1 nodes
     0 MiB available memory on the printing compute node when the environment starts

     Waiting for input...
     Reading input from standard input

     Current dimensions of program PWSCF are:
     Max number of different atomic species (ntypx) = 10
     Max number of k-points (npk) =  40000
     Max angular momentum in pseudopotentials (lmaxx) =  4

     IMPORTANT: XC functional enforced from input :
     Exchange-correlation= VDW-DF2-B86R
                           (   1   4  26   0   2   0   0)
     Any further DFT definition will be discarded
     Please, verify this is what you really want


     R & G space division:  proc/nbgrp/npool/nimage =       8
     Subspace diagonalization in iterative solution of the eigenvalue problem:
     a serial algorithm will be used


     Parallelization info
     --------------------
     sticks:   dense  smooth     PW     G-vecs:    dense   smooth      PW
     Min          93      93     26                16393    16393    2566
     Max          94      94     27                16428    16428    2595
     Sum         745     745    211               131209   131209   20621

     Using Slab Decomposition



     bravais-lattice index     =            4
     lattice parameter (alat)  =       4.7400  a.u.
     unit-cell volume          =     737.8289 (a.u.)^3
     number of atoms/cell      =            4
     number of atomic types    =            2
     number of electrons       =        16.00
     number of Kohn-Sham states=           12
     kinetic-energy cutoff     =     120.0000  Ry
     charge density cutoff     =     480.0000  Ry
     scf convergence threshold =      1.0E-06
     mixing beta               =       0.7000
     number of iterations used =            8  plain     mixing
     energy convergence thresh.=      1.0E-04
     force convergence thresh. =      1.0E-03
     press convergence thresh. =      5.0E-01
     Exchange-correlation= VDW-DF2-B86R
                           (   1   4  26   0   2   0   0)
     nstep                     =           50


     celldm(1)=   4.740000  celldm(2)=   0.000000  celldm(3)=   8.000000
     celldm(4)=   0.000000  celldm(5)=   0.000000  celldm(6)=   0.000000

     crystal axes: (cart. coord. in units of alat)
               a(1) = (   1.000000   0.000000   0.000000 )  
               a(2) = (  -0.500000   0.866025   0.000000 )  
               a(3) = (   0.000000   0.000000   8.000000 )  

     reciprocal axes: (cart. coord. in units 2 pi/alat)
               b(1) = (  1.000000  0.577350 -0.000000 )  
               b(2) = (  0.000000  1.154701  0.000000 )  
               b(3) = (  0.000000 -0.000000  0.125000 )  


     PseudoPot. # 1 for B  read from file:
     ../../../../Pseudo/PBE/B.upf
     MD5 check sum: 72f82fc31bc892420d0cab7e25c88ab8
     Pseudo is Norm-conserving + core correction, Zval =  3.0
     Generated using ONCVPSP code by D. R. Hamann
     Using radial grid of 1534 points,  4 beta functions with: 
                l(1) =   0
                l(2) =   0
                l(3) =   1
                l(4) =   1

     PseudoPot. # 2 for N  read from file:
     ../../../../Pseudo/PBE/N.upf
     MD5 check sum: d34365f73bb0e2ee98afc20ec3e87676
     Pseudo is Norm-conserving + core correction, Zval =  5.0
     Generated using ONCVPSP code by D. R. Hamann
     Using radial grid of 1058 points,  4 beta functions with: 
                l(1) =   0
                l(2) =   0
                l(3) =   1
                l(4) =   1

     atomic species   valence    mass     pseudopotential
        B              3.00    10.00000     B ( 1.00)
        N              5.00    14.01100     N ( 1.00)

      6 Sym. Ops. (no inversion) found


                                    s                        frac. trans.

      isym =  1     identity                                     

 cryst.   s( 1) = (     1          0          0      )
                  (     0          1          0      )
                  (     0          0          1      )

 cart.    s( 1) = (  1.0000000  0.0000000  0.0000000 )
                  (  0.0000000  1.0000000  0.0000000 )
                  (  0.0000000  0.0000000  1.0000000 )


      isym =  2     120 deg rotation - cryst. axis [0,0,1]       

 cryst.   s( 2) = (     0          1          0      )
                  (    -1         -1          0      )
                  (     0          0          1      )

 cart.    s( 2) = ( -0.5000000 -0.8660254  0.0000000 )
                  (  0.8660254 -0.5000000  0.0000000 )
                  (  0.0000000  0.0000000  1.0000000 )


      isym =  3     120 deg rotation - cryst. axis [0,0,-1]      

 cryst.   s( 3) = (    -1         -1          0      )
                  (     1          0          0      )
                  (     0          0          1      )

 cart.    s( 3) = ( -0.5000000  0.8660254  0.0000000 )
                  ( -0.8660254 -0.5000000  0.0000000 )
                  (  0.0000000  0.0000000  1.0000000 )


      isym =  4     inv. 180 deg rotation - cart. axis [1,0,0]   

 cryst.   s( 4) = (    -1          0          0      )
                  (     1          1          0      )
                  (     0          0          1      )

 cart.    s( 4) = ( -1.0000000  0.0000000  0.0000000 )
                  (  0.0000000  1.0000000  0.0000000 )
                  (  0.0000000  0.0000000  1.0000000 )


      isym =  5     inv. 180 deg rotation - cryst. axis [0,1,0]  

 cryst.   s( 5) = (     1          1          0      )
                  (     0         -1          0      )
                  (     0          0          1      )

 cart.    s( 5) = (  0.5000000  0.8660254  0.0000000 )
                  (  0.8660254 -0.5000000  0.0000000 )
                  (  0.0000000  0.0000000  1.0000000 )


      isym =  6     inv. 180 deg rotation - cryst. axis [1,1,0]  

 cryst.   s( 6) = (     0         -1          0      )
                  (    -1          0          0      )
                  (     0          0          1      )

 cart.    s( 6) = (  0.5000000 -0.8660254  0.0000000 )
                  ( -0.8660254 -0.5000000  0.0000000 )
                  (  0.0000000  0.0000000  1.0000000 )


     point group C_3v (3m)  
     there are  3 classes
     the character table:

       E     2C3   3s_v 
A_1    1.00  1.00  1.00
A_2    1.00  1.00 -1.00
E      2.00 -1.00  0.00

     the symmetry operations in each class and the name of the first element:

     E        1
          identity                                               
     2C3      2    3
          120 deg rotation - cryst. axis [0,0,1]                 
     3s_v     4    5    6
          inv. 180 deg rotation - cart. axis [1,0,0]             

   Cartesian axes

     site n.     atom                  positions (alat units)
         1           B   tau(   1) = (   0.0000000   0.0000000   0.0000000  )
         2           N   tau(   2) = (   0.5000005   0.2886748   0.0000000  )
         3           B   tau(   3) = (   0.0000000   0.0000000   1.3112000  )
         4           N   tau(   4) = (   0.5000005   0.2886748   1.3112000  )

   Crystallographic axes

     site n.     atom                  positions (cryst. coord.)
         1           B   tau(   1) = (  0.0000000  0.0000000  0.0000000  )
         2           N   tau(   2) = (  0.6666670  0.3333330  0.0000000  )
         3           B   tau(   3) = (  0.0000000  0.0000000  0.1639000  )
         4           N   tau(   4) = (  0.6666670  0.3333330  0.1639000  )

     number of k points=    19  Marzari-Vanderbilt smearing, width (Ry)=  0.0050
                       cart. coord. in units 2pi/alat
        k(    1) = (   0.0000000   0.0000000   0.0000000), wk =   0.0138889
        k(    2) = (   0.0000000   0.0962250   0.0000000), wk =   0.0833333
        k(    3) = (   0.0000000   0.1924501   0.0000000), wk =   0.0833333
        k(    4) = (   0.0000000   0.2886751   0.0000000), wk =   0.0833333
        k(    5) = (   0.0000000   0.3849002   0.0000000), wk =   0.0833333
        k(    6) = (   0.0000000   0.4811252   0.0000000), wk =   0.0833333
        k(    7) = (   0.0000000  -0.5773503   0.0000000), wk =   0.0416667
        k(    8) = (   0.0833333   0.1443376   0.0000000), wk =   0.0833333
        k(    9) = (   0.0833333   0.2405626   0.0000000), wk =   0.1666667
        k(   10) = (   0.0833333   0.3367877   0.0000000), wk =   0.1666667
        k(   11) = (   0.0833333   0.4330127   0.0000000), wk =   0.1666667
        k(   12) = (   0.0833333   0.5292377   0.0000000), wk =   0.1666667
        k(   13) = (   0.1666667   0.2886751   0.0000000), wk =   0.0833333
        k(   14) = (   0.1666667   0.3849002   0.0000000), wk =   0.1666667
        k(   15) = (   0.1666667   0.4811252   0.0000000), wk =   0.1666667
        k(   16) = (   0.1666667   0.5773503   0.0000000), wk =   0.0833333
        k(   17) = (   0.2500000   0.4330127   0.0000000), wk =   0.0833333
        k(   18) = (   0.2500000   0.5292377   0.0000000), wk =   0.1666667
        k(   19) = (   0.3333333   0.5773503   0.0000000), wk =   0.0277778

                       cryst. coord.
        k(    1) = (   0.0000000   0.0000000   0.0000000), wk =   0.0138889
        k(    2) = (   0.0000000   0.0833333   0.0000000), wk =   0.0833333
        k(    3) = (   0.0000000   0.1666667   0.0000000), wk =   0.0833333
        k(    4) = (   0.0000000   0.2500000   0.0000000), wk =   0.0833333
        k(    5) = (   0.0000000   0.3333333   0.0000000), wk =   0.0833333
        k(    6) = (   0.0000000   0.4166667   0.0000000), wk =   0.0833333
        k(    7) = (   0.0000000  -0.5000000   0.0000000), wk =   0.0416667
        k(    8) = (   0.0833333   0.0833333   0.0000000), wk =   0.0833333
        k(    9) = (   0.0833333   0.1666667   0.0000000), wk =   0.1666667
        k(   10) = (   0.0833333   0.2500000   0.0000000), wk =   0.1666667
        k(   11) = (   0.0833333   0.3333333   0.0000000), wk =   0.1666667
        k(   12) = (   0.0833333   0.4166667   0.0000000), wk =   0.1666667
        k(   13) = (   0.1666667   0.1666667   0.0000000), wk =   0.0833333
        k(   14) = (   0.1666667   0.2500000   0.0000000), wk =   0.1666667
        k(   15) = (   0.1666667   0.3333333   0.0000000), wk =   0.1666667
        k(   16) = (   0.1666667   0.4166667   0.0000000), wk =   0.0833333
        k(   17) = (   0.2500000   0.2500000   0.0000000), wk =   0.0833333
        k(   18) = (   0.2500000   0.3333333   0.0000000), wk =   0.1666667
        k(   19) = (   0.3333333   0.3333333   0.0000000), wk =   0.0277778

     Dense  grid:   131209 G-vectors     FFT dimensions: (  36,  36, 270)

     Dynamical RAM for                 wfc:       0.37 MB

     Dynamical RAM for     wfc (w. buffer):       7.50 MB

     Dynamical RAM for           str. fact:       0.50 MB

     Dynamical RAM for           local pot:       0.00 MB

     Dynamical RAM for          nlocal pot:       1.00 MB

     Dynamical RAM for                qrad:       2.01 MB

     Dynamical RAM for          rho,v,vnew:       1.76 MB

     Dynamical RAM for               rhoin:       0.59 MB

     Dynamical RAM for            rho*nmix:       4.00 MB

     Dynamical RAM for           G-vectors:       1.06 MB

     Dynamical RAM for          h,s,v(r/c):       0.03 MB

     Dynamical RAM for          <psi|beta>:       0.01 MB

     Dynamical RAM for                 psi:       0.75 MB

     Dynamical RAM for                hpsi:       0.75 MB

     Dynamical RAM for      wfcinit/wfcrot:       1.01 MB

     Estimated static dynamical RAM per process >      16.84 MB

     Estimated max dynamical RAM per process >      22.38 MB

     Estimated total dynamical RAM >     179.03 MB

     Initial potential from superposition of free atoms

     starting charge      15.9995, renormalised to      16.0000

     negative rho (up, down):  4.158E-06 0.000E+00


     %%%%%%%%%%%%%%%%%%%%%%%%%%%%%%%%%%%%%%%%%%%%%%%%%%%%%%%%%%%%%%%%%%%%%%%%
     %                                                                      %
     % You are using vdW-DF, which was implemented by the Thonhauser group. %
     % Please cite the following two papers that made this development      %
     % possible and the two reviews that describe the various versions:     %
     %                                                                      %
     %   T. Thonhauser et al., PRL 115, 136402 (2015).                      %
     %   T. Thonhauser et al., PRB 76, 125112 (2007).                       %
     %   K. Berland et al., Rep. Prog. Phys. 78, 066501 (2015).             %
     %   D.C. Langreth et al., J. Phys.: Condens. Matter 21, 084203 (2009). %
     %                                                                      %
     % If you are calculating stress with vdW-DF, please also cite:         %
     %                                                                      %
     %   R. Sabatini et al., J. Phys.: Condens. Matter 24, 424209 (2012).   %
     %                                                                      %
     %%%%%%%%%%%%%%%%%%%%%%%%%%%%%%%%%%%%%%%%%%%%%%%%%%%%%%%%%%%%%%%%%%%%%%%%

     %%%%%%%%%%%%%%%%%%%%%%%%%%%%%%%%%%%%%%%%%%%%%%%%%%%%%%%%%%%%%%%%%%%%%%%%
     %                                                                      %
     %  vdW-DF NEWS:                                                        %
     %                                                                      %
     %  * vdW-DF3 is now available. DOI: 10.1021/acs.jctc.0c00471           %
     %    use with input_dft = 'vdW-DF3-opt1' or 'vdW-DF3-opt2'             %
     %                                                                      %
     %  * Unscreened and range-separated hybrid vdW-DF-cx functionals       %
     %    DOI: 10.1063/1.4986522 and 10.1088/1361-648X/ac2ad2               %
     %    use with input_dft = 'vdW-DF-cx0'    and 'vdW-DF-ahcx'            %
     %  * Unscreened and range-separated hybrid vdW-DF2-b86r functionals    %
     %    DOI: 10.1063/1.4986522 and DOI: 10.1103/PhysRevX.12.041003        %
     %    use with input_dft = 'vdW-DF2-br0' and 'vdW-DF2-ahbr'             %
     %                                                                      %
     %%%%%%%%%%%%%%%%%%%%%%%%%%%%%%%%%%%%%%%%%%%%%%%%%%%%%%%%%%%%%%%%%%%%%%%%


     Carrying out vdW-DF run using the following parameters:
     Nqs    =  20  Npoints =  1024  r_max =  100.000
     q_mesh =  0.00001000  0.04494208  0.09755937  0.15916263
               0.23128650  0.31572767  0.41458969  0.53033537
               0.66584808  0.82450364  1.01025438  1.22772762
               1.48234092  1.78043706  2.12944203  2.53805004
               3.01644009  3.57652955  4.23227104  5.00000000


     -----------------------------------------------
     Non-local corr. energy    =       0.17446316 Ry
     -----------------------------------------------

     Starting wfcs are   16 randomized atomic wfcs

     total cpu time spent up to now is       10.2 secs

     Self-consistent Calculation

     iteration #  1     ecut=   120.00 Ry     beta= 0.70
     Davidson diagonalization with overlap

---- Real-time Memory Report at c_bands before calling an iterative solver
             0 MiB given to the printing process from OS
             0 MiB allocation reported by mallinfo(arena+hblkhd)
             0 MiB available memory on the node where the printing process lives
------------------
     ethr =  1.00E-02,  avg # of iterations =  3.9


     -----------------------------------------------
     Non-local corr. energy    =       0.20481698 Ry
     -----------------------------------------------


     total cpu time spent up to now is       11.7 secs

     total energy              =     -53.44257347 Ry
     estimated scf accuracy    <       0.76582730 Ry

     iteration #  2     ecut=   120.00 Ry     beta= 0.70
     Davidson diagonalization with overlap

---- Real-time Memory Report at c_bands before calling an iterative solver
             0 MiB given to the printing process from OS
             0 MiB allocation reported by mallinfo(arena+hblkhd)
             0 MiB available memory on the node where the printing process lives
------------------
     ethr =  4.79E-03,  avg # of iterations =  3.6


     -----------------------------------------------
     Non-local corr. energy    =       0.19878540 Ry
     -----------------------------------------------


     total cpu time spent up to now is       13.0 secs

     total energy              =     -53.64220029 Ry
     estimated scf accuracy    <       0.33197293 Ry

     iteration #  3     ecut=   120.00 Ry     beta= 0.70
     Davidson diagonalization with overlap

---- Real-time Memory Report at c_bands before calling an iterative solver
             0 MiB given to the printing process from OS
             0 MiB allocation reported by mallinfo(arena+hblkhd)
             0 MiB available memory on the node where the printing process lives
------------------
     ethr =  2.07E-03,  avg # of iterations =  2.0


     -----------------------------------------------
     Non-local corr. energy    =       0.20072446 Ry
     -----------------------------------------------


     total cpu time spent up to now is       14.1 secs

     total energy              =     -53.69556046 Ry
     estimated scf accuracy    <       0.00581794 Ry

     iteration #  4     ecut=   120.00 Ry     beta= 0.70
     Davidson diagonalization with overlap

---- Real-time Memory Report at c_bands before calling an iterative solver
             0 MiB given to the printing process from OS
             0 MiB allocation reported by mallinfo(arena+hblkhd)
             0 MiB available memory on the node where the printing process lives
------------------
     ethr =  3.64E-05,  avg # of iterations = 10.5


     -----------------------------------------------
     Non-local corr. energy    =       0.20093204 Ry
     -----------------------------------------------


     total cpu time spent up to now is       16.3 secs

     total energy              =     -53.70045984 Ry
     estimated scf accuracy    <       0.00610718 Ry

     iteration #  5     ecut=   120.00 Ry     beta= 0.70
     Davidson diagonalization with overlap

---- Real-time Memory Report at c_bands before calling an iterative solver
             0 MiB given to the printing process from OS
             0 MiB allocation reported by mallinfo(arena+hblkhd)
             0 MiB available memory on the node where the printing process lives
------------------
     ethr =  3.64E-05,  avg # of iterations =  2.8


     -----------------------------------------------
     Non-local corr. energy    =       0.20091583 Ry
     -----------------------------------------------


     total cpu time spent up to now is       17.5 secs

     total energy              =     -53.70060851 Ry
     estimated scf accuracy    <       0.00117392 Ry

     iteration #  6     ecut=   120.00 Ry     beta= 0.70
     Davidson diagonalization with overlap

---- Real-time Memory Report at c_bands before calling an iterative solver
             0 MiB given to the printing process from OS
             0 MiB allocation reported by mallinfo(arena+hblkhd)
             0 MiB available memory on the node where the printing process lives
------------------
     ethr =  7.34E-06,  avg # of iterations =  4.8

     negative rho (up, down):  1.799E-07 0.000E+00


     -----------------------------------------------
     Non-local corr. energy    =       0.20093910 Ry
     -----------------------------------------------


     total cpu time spent up to now is       18.8 secs

     total energy              =     -53.70094354 Ry
     estimated scf accuracy    <       0.00001913 Ry

     iteration #  7     ecut=   120.00 Ry     beta= 0.70
     Davidson diagonalization with overlap

---- Real-time Memory Report at c_bands before calling an iterative solver
             0 MiB given to the printing process from OS
             0 MiB allocation reported by mallinfo(arena+hblkhd)
             0 MiB available memory on the node where the printing process lives
------------------
     c_bands:  1 eigenvalues not converged
     ethr =  1.20E-07,  avg # of iterations =  7.3


     -----------------------------------------------
     Non-local corr. energy    =       0.20095322 Ry
     -----------------------------------------------


     total cpu time spent up to now is       20.5 secs

     total energy              =     -53.70094579 Ry
     estimated scf accuracy    <       0.00002077 Ry

     iteration #  8     ecut=   120.00 Ry     beta= 0.70
     Davidson diagonalization with overlap

---- Real-time Memory Report at c_bands before calling an iterative solver
             0 MiB given to the printing process from OS
             0 MiB allocation reported by mallinfo(arena+hblkhd)
             0 MiB available memory on the node where the printing process lives
------------------
     ethr =  1.20E-07,  avg # of iterations =  2.4


     -----------------------------------------------
     Non-local corr. energy    =       0.20095477 Ry
     -----------------------------------------------


     total cpu time spent up to now is       21.6 secs

     total energy              =     -53.70094712 Ry
     estimated scf accuracy    <       0.00000151 Ry

     iteration #  9     ecut=   120.00 Ry     beta= 0.70
     Davidson diagonalization with overlap

---- Real-time Memory Report at c_bands before calling an iterative solver
             0 MiB given to the printing process from OS
             0 MiB allocation reported by mallinfo(arena+hblkhd)
             0 MiB available memory on the node where the printing process lives
------------------
     ethr =  9.45E-09,  avg # of iterations =  3.6


     -----------------------------------------------
     Non-local corr. energy    =       0.20095765 Ry
     -----------------------------------------------


     total cpu time spent up to now is       22.9 secs

     End of self-consistent calculation

          k = 0.0000 0.0000 0.0000 ( 16399 PWs)   bands (ev):

   -20.1687 -20.0041  -8.2783  -7.1465  -3.8633  -3.8633  -3.8406  -3.8405
     2.0459   2.5821   3.7275   4.7764

     occupation numbers 
     1.0000   1.0000   1.0000   1.0000   1.0000   1.0000   1.0000   1.0000
     0.0000   0.0000   0.0000   0.0000

          k = 0.0000 0.0962 0.0000 ( 16391 PWs)   bands (ev):

   -20.0347 -19.8724  -8.0952  -6.9727  -4.4235  -4.3847  -4.1200  -4.0955
     2.2781   2.7954   3.9504   4.9927

     occupation numbers 
     1.0000   1.0000   1.0000   1.0000   1.0000   1.0000   1.0000   1.0000
     0.0000   0.0000   0.0000   0.0000

          k = 0.0000 0.1925 0.0000 ( 16390 PWs)   bands (ev):

   -19.6398 -19.4847  -7.5545  -6.4645  -5.8310  -5.7609  -4.7459  -4.7175
     2.9375   3.4173   4.6063   5.5459

     occupation numbers 
     1.0000   1.0000   1.0000   1.0000   1.0000   1.0000   1.0000   1.0000
     0.0000   0.0000   0.0000   0.0000

          k = 0.0000 0.2887 0.0000 ( 16370 PWs)   bands (ev):

   -19.0114 -18.8683  -7.6263  -7.5287  -6.6680  -5.6342  -5.4726  -5.4406
     3.9769   4.3763   5.4299   5.8099

     occupation numbers 
     1.0000   1.0000   1.0000   1.0000   1.0000   1.0000   1.0000   1.0000
     0.0000   0.0000   0.0000   0.0000

          k = 0.0000 0.3849 0.0000 ( 16376 PWs)   bands (ev):

   -18.2180 -18.0919  -9.3982  -9.2800  -6.0975  -6.0629  -5.5390  -4.5921
     4.1036   4.8868   5.3352   6.5483

     occupation numbers 
     1.0000   1.0000   1.0000   1.0000   1.0000   1.0000   1.0000   1.0000
     0.0000   0.0000   0.0000   0.0000

          k = 0.0000 0.4811 0.0000 ( 16402 PWs)   bands (ev):

   -17.4368 -17.3313 -10.8228 -10.6804  -6.5077  -6.4716  -4.3533  -3.5445
     2.4465   3.6863   6.6117   7.5531

     occupation numbers 
     1.0000   1.0000   1.0000   1.0000   1.0000   1.0000   1.0000   1.0000
     0.0000   0.0000   0.0000   0.0000

          k = 0.0000-0.5774 0.0000 ( 16394 PWs)   bands (ev):

   -17.0680 -16.9746 -11.4142 -11.2585  -6.6496  -6.6131  -3.7405  -3.0350
     1.6400   3.0198   6.9906   7.7091

     occupation numbers 
     1.0000   1.0000   1.0000   1.0000   1.0000   1.0000   1.0000   1.0000
     0.0000   0.0000   0.0000   0.0000

          k = 0.0833 0.1443 0.0000 ( 16405 PWs)   bands (ev):

   -19.7701 -19.6125  -7.7330  -6.6305  -5.3396  -5.2812  -4.6291  -4.5990
     2.7248   3.2137   4.3910   5.4182

     occupation numbers 
     1.0000   1.0000   1.0000   1.0000   1.0000   1.0000   1.0000   1.0000
     0.0000   0.0000   0.0000   0.0000

          k = 0.0833 0.2406 0.0000 ( 16381 PWs)   bands (ev):

   -19.2571 -19.1091  -7.0522  -6.7955  -6.7542  -5.9524  -5.4178  -5.3790
     3.5819   4.0152   5.2396   5.7764

     occupation numbers 
     1.0000   1.0000   1.0000   1.0000   1.0000   1.0000   1.0000   1.0000
     0.0000   0.0000   0.0000   0.0000

          k = 0.0833 0.3368 0.0000 ( 16367 PWs)   bands (ev):

   -18.5398 -18.4063  -8.5459  -8.4416  -6.1689  -6.1206  -6.0004  -5.0162
     4.7602   4.8988   4.9483   6.5800

     occupation numbers 
     1.0000   1.0000   1.0000   1.0000   1.0000   1.0000   1.0000   1.0000
     0.0000   0.0000   0.0000   0.0000

          k = 0.0833 0.4330 0.0000 ( 16378 PWs)   bands (ev):

   -17.7285 -17.6143 -10.1341 -10.0063  -6.7162  -6.6682  -4.8125  -3.9396
     3.2221   4.3072   6.2991   7.2564

     occupation numbers 
     1.0000   1.0000   1.0000   1.0000   1.0000   1.0000   1.0000   1.0000
     0.0000   0.0000   0.0000   0.0000

          k = 0.0833 0.5292 0.0000 ( 16379 PWs)   bands (ev):

   -17.1004 -17.0047 -11.1809 -11.0322  -7.0050  -6.9556  -3.8079  -3.0812
     1.8885   3.2061   7.3817   8.2292

     occupation numbers 
     1.0000   1.0000   1.0000   1.0000   1.0000   1.0000   1.0000   1.0000
     0.0000   0.0000   0.0000   0.0000

          k = 0.1667 0.2887 0.0000 ( 16366 PWs)   bands (ev):

   -18.6512 -18.5152  -8.0421  -7.9478  -6.4420  -6.3812  -6.1589  -5.1621
     4.6342   4.8718   5.1531   6.6866

     occupation numbers 
     1.0000   1.0000   1.0000   1.0000   1.0000   1.0000   1.0000   1.0000
     0.0000   0.0000   0.0000   0.0000

          k = 0.1667 0.3849 0.0000 ( 16360 PWs)   bands (ev):

   -17.8941 -17.7748  -9.3924  -9.2826  -7.3063  -7.2352  -5.0673  -4.1617
     3.8350   4.7509   6.0771   6.9864

     occupation numbers 
     1.0000   1.0000   1.0000   1.0000   1.0000   1.0000   1.0000   1.0000
     0.0000   0.0000   0.0000   0.0000

          k = 0.1667 0.4811 0.0000 ( 16379 PWs)   bands (ev):

   -17.1624 -17.0626 -10.5831 -10.4527  -7.8281  -7.7506  -3.9332  -3.1691
     2.4235   3.6003   7.7295   8.5715

     occupation numbers 
     1.0000   1.0000   1.0000   1.0000   1.0000   1.0000   1.0000   1.0000
     0.0000   0.0000   0.0000   0.0000

          k = 0.1667 0.5774 0.0000 ( 16386 PWs)   bands (ev):

   -16.8246 -16.7357 -11.0915 -10.9495  -7.9998  -7.9205  -3.3549  -2.6933
     1.7276   3.0253   8.6706   9.6541

     occupation numbers 
     1.0000   1.0000   1.0000   1.0000   1.0000   1.0000   1.0000   1.0000
     0.0000   0.0000   0.0000   0.0000

          k = 0.2500 0.4330 0.0000 ( 16348 PWs)   bands (ev):

   -17.1921 -17.0905 -10.1183 -10.0045  -8.3974  -8.2993  -3.9916  -3.2111
     2.7191   3.8117   7.6868   8.4168

     occupation numbers 
     1.0000   1.0000   1.0000   1.0000   1.0000   1.0000   1.0000   1.0000
     0.0000   0.0000   0.0000   0.0000

          k = 0.2500 0.5292 0.0000 ( 16377 PWs)   bands (ev):

   -16.6806 -16.5941 -10.6335 -10.5134  -9.0099  -8.8960  -3.1250  -2.4874
     1.8386   3.0557   9.2173   9.4149

     occupation numbers 
     1.0000   1.0000   1.0000   1.0000   1.0000   1.0000   1.0000   1.0000
     0.0000   0.0000   0.0000   0.0000

          k = 0.3333 0.5774 0.0000 ( 16404 PWs)   bands (ev):

   -16.4859 -16.4050 -10.4070 -10.3176  -9.7052  -9.5504  -2.7704  -2.1996
     1.6070   2.8432   8.7892  10.2445

     occupation numbers 
     1.0000   1.0000   1.0000   1.0000   1.0000   1.0000   1.0000   1.0000
     0.0000   0.0000   0.0000   0.0000

     the Fermi energy is    -0.9904 ev

!    total energy              =     -53.70094782 Ry
     estimated scf accuracy    <       0.00000005 Ry
     smearing contrib. (-TS)   =       0.00000000 Ry
     internal energy E=F+TS    =     -53.70094782 Ry

     The total energy is F=E-TS. E is the sum of the following terms:
     one-electron contribution =    -536.36348352 Ry
     hartree contribution      =     272.35026435 Ry
     xc contribution           =     -17.39262759 Ry
     ewald contribution        =     227.70489893 Ry

     convergence has been achieved in   9 iterations


     -----------------------------------------------
     Non-local corr. energy    =       0.20095765 Ry
     -----------------------------------------------


     Forces acting on atoms (cartesian axes, Ry/au):

     atom    1 type  1   force =     0.00000000    0.00000000   -0.00220670
     atom    2 type  2   force =     0.00000000    0.00000000   -0.00272945
     atom    3 type  1   force =     0.00000000    0.00000000    0.00218824
     atom    4 type  2   force =     0.00000000    0.00000000    0.00274791
     The non-local contrib.  to forces
     atom    1 type  1   force =     0.00000000    0.00000000   -0.00272680
     atom    2 type  2   force =    -0.00000000   -0.00000000   -0.00568961
     atom    3 type  1   force =     0.00000000   -0.00000000    0.00270621
     atom    4 type  2   force =    -0.00000000   -0.00000000    0.00576189
     The ionic contribution  to forces
     atom    1 type  1   force =     0.00000773   -0.00000446  -10.41958618
     atom    2 type  2   force =    -0.00000773    0.00000446  -17.37027181
     atom    3 type  1   force =     0.00000773   -0.00000446   10.41958618
     atom    4 type  2   force =    -0.00000773    0.00000446   17.37027181
     The local contribution  to forces
     atom    1 type  1   force =    -0.00000000    0.00000000   10.42013673
     atom    2 type  2   force =    -0.00003350    0.00001934   17.37330108
     atom    3 type  1   force =     0.00000000    0.00000000  -10.41997744
     atom    4 type  2   force =    -0.00003350    0.00001934  -17.37303117
     The core correction contribution to forces
     atom    1 type  1   force =     0.00000000   -0.00000000    0.00010813
     atom    2 type  2   force =     0.00000139   -0.00000080    0.00022302
     atom    3 type  1   force =     0.00000000   -0.00000000   -0.00010647
     atom    4 type  2   force =     0.00000139   -0.00000080   -0.00022346
     The Hubbard contrib.    to forces
     atom    1 type  1   force =     0.00000000    0.00000000    0.00000000
     atom    2 type  2   force =     0.00000000    0.00000000    0.00000000
     atom    3 type  1   force =     0.00000000    0.00000000    0.00000000
     atom    4 type  2   force =     0.00000000    0.00000000    0.00000000
     The SCF correction term to forces
     atom    1 type  1   force =    -0.00000000    0.00000000   -0.00000000
     atom    2 type  2   force =     0.00000000   -0.00000000   -0.00000000
     atom    3 type  1   force =    -0.00000000    0.00000000   -0.00001216
     atom    4 type  2   force =     0.00000000   -0.00000000   -0.00002306

     Total force =     0.003513     Total SCF correction =     0.000026


     Computing stress (Cartesian axis) and pressure



     -----------------------------------------------
     Non-local corr. energy    =       0.20095765 Ry
     -----------------------------------------------

          total   stress  (Ry/bohr**3)                   (kbar)     P=        5.18
   0.00003188   0.00000000   0.00000000            4.69        0.00        0.00
   0.00000000   0.00003188   0.00000000            0.00        4.69        0.00
   0.00000000   0.00000000   0.00004187            0.00        0.00        6.16

     kinetic stress (kbar)   4828.41      0.00      0.00
                                0.00   4828.41      0.00
                                0.00      0.00   5260.00

     local   stress (kbar)-109833.40      0.00      0.00
                                0.00-109833.39     -0.00
                                0.00     -0.00 110511.74

     nonloc. stress (kbar)   -796.93      0.00      0.00
                                0.00   -796.93     -0.00
                                0.00     -0.00   -770.42

     hartree stress (kbar)  53462.50     -0.00      0.00
                               -0.00  53462.50      0.00
                                0.00      0.00 -52625.00

     exc-cor stress (kbar)   -485.44     -0.00      0.00
                               -0.00   -485.44     -0.00
                                0.00     -0.00   -532.68

     corecor stress (kbar)   -541.71      0.00      0.00
                                0.00   -541.71     -0.00
                                0.00     -0.00   -529.98

     ewald   stress (kbar)  53366.86     -0.01      0.00
                               -0.01  53366.85     -0.00
                                0.00     -0.00 -61334.90

     hubbard stress (kbar)      0.00      0.00      0.00
                                0.00      0.00      0.00
                                0.00      0.00      0.00

     DFT-D   stress (kbar)      0.00      0.00      0.00
                                0.00      0.00      0.00
                                0.00      0.00      0.00

     XDM     stress (kbar)      0.00      0.00      0.00
                                0.00      0.00      0.00
                                0.00      0.00      0.00

     dft-nl  stress (kbar)      4.40      0.00      0.00
                                0.00      4.40     -0.00
                                0.00     -0.00     27.40

     TS-vdW  stress (kbar)      0.00      0.00      0.00
                                0.00      0.00      0.00
                                0.00      0.00      0.00

     MDB     stress (kbar)      0.00      0.00      0.00
                                0.00      0.00      0.00
                                0.00      0.00      0.00

     3D-RISM stress (kbar)      0.00      0.00      0.00
                                0.00      0.00      0.00
                                0.00      0.00      0.00


     BFGS Geometry Optimization
     Energy error            =      0.0E+00 Ry
     Gradient error          =      2.7E-03 Ry/Bohr
     Cell gradient error     =      6.2E+00 kbar

     number of scf cycles    =   1
     number of bfgs steps    =   0

     enthalpy           new  =     -53.7009478241 Ry

     new trust radius        =       0.0056869624 bohr
     new conv_thr            =       0.0000010000 Ry

     new unit-cell volume =    738.60124 a.u.^3 (   109.44941 Ang^3 )
     density =      0.72858 g/cm^3

CELL_PARAMETERS (alat=  4.74000000)
   1.000000000   0.000000000   0.000000000
  -0.500000000   0.866025404   0.000000000
   0.000000000   0.000000000   8.008374570

ATOMIC_POSITIONS (crystal)
B             0.0000000000        0.0000000000        0.0000000000    0   0   0
N             0.6666670000        0.3333330000        0.0000000000    0   0   0
B             0.0000000000        0.0000000000        0.1639577068
N             0.6666670000        0.3333330000        0.1639724660



     Writing config-only to output data dir ./tmp/BN2L_AA_PBE_vdW.save/
     NEW-OLD atomic charge density approx. for the potential

     negative rho (up, down):  1.646E-07 0.000E+00


     -----------------------------------------------
     Non-local corr. energy    =       0.20115957 Ry
     -----------------------------------------------

     extrapolated charge   16.01673, renormalised to   16.00000

     total cpu time spent up to now is       28.4 secs

     Self-consistent Calculation

     iteration #  1     ecut=   120.00 Ry     beta= 0.70
     Davidson diagonalization with overlap

---- Real-time Memory Report at c_bands before calling an iterative solver
             0 MiB given to the printing process from OS
             0 MiB allocation reported by mallinfo(arena+hblkhd)
             0 MiB available memory on the node where the printing process lives
------------------
     ethr =  1.00E-06,  avg # of iterations =  8.7

     negative rho (up, down):  2.797E-08 0.000E+00


     -----------------------------------------------
     Non-local corr. energy    =       0.20076426 Ry
     -----------------------------------------------


     total cpu time spent up to now is       30.3 secs

     total energy              =     -53.70056008 Ry
     estimated scf accuracy    <       0.00033202 Ry

     iteration #  2     ecut=   120.00 Ry     beta= 0.70
     Davidson diagonalization with overlap

---- Real-time Memory Report at c_bands before calling an iterative solver
             0 MiB given to the printing process from OS
             0 MiB allocation reported by mallinfo(arena+hblkhd)
             0 MiB available memory on the node where the printing process lives
------------------
     c_bands:  1 eigenvalues not converged
     c_bands:  1 eigenvalues not converged
     ethr =  2.08E-06,  avg # of iterations =  9.7

     negative rho (up, down):  1.897E-08 0.000E+00


     -----------------------------------------------
     Non-local corr. energy    =       0.20087025 Ry
     -----------------------------------------------


     total cpu time spent up to now is       32.3 secs

     total energy              =     -53.70091685 Ry
     estimated scf accuracy    <       0.00130195 Ry

     iteration #  3     ecut=   120.00 Ry     beta= 0.70
     Davidson diagonalization with overlap

---- Real-time Memory Report at c_bands before calling an iterative solver
             0 MiB given to the printing process from OS
             0 MiB allocation reported by mallinfo(arena+hblkhd)
             0 MiB available memory on the node where the printing process lives
------------------
     ethr =  2.08E-06,  avg # of iterations =  4.4

     negative rho (up, down):  1.532E-08 0.000E+00


     -----------------------------------------------
     Non-local corr. energy    =       0.20091154 Ry
     -----------------------------------------------


     total cpu time spent up to now is       33.7 secs

     total energy              =     -53.70101246 Ry
     estimated scf accuracy    <       0.00014995 Ry

     iteration #  4     ecut=   120.00 Ry     beta= 0.70
     Davidson diagonalization with overlap

---- Real-time Memory Report at c_bands before calling an iterative solver
             0 MiB given to the printing process from OS
             0 MiB allocation reported by mallinfo(arena+hblkhd)
             0 MiB available memory on the node where the printing process lives
------------------
     ethr =  9.37E-07,  avg # of iterations =  1.0


     -----------------------------------------------
     Non-local corr. energy    =       0.20095748 Ry
     -----------------------------------------------


     total cpu time spent up to now is       34.6 secs

     total energy              =     -53.70099346 Ry
     estimated scf accuracy    <       0.00008127 Ry

     iteration #  5     ecut=   120.00 Ry     beta= 0.70
     Davidson diagonalization with overlap

---- Real-time Memory Report at c_bands before calling an iterative solver
             0 MiB given to the printing process from OS
             0 MiB allocation reported by mallinfo(arena+hblkhd)
             0 MiB available memory on the node where the printing process lives
------------------
     ethr =  5.08E-07,  avg # of iterations =  1.2


     -----------------------------------------------
     Non-local corr. energy    =       0.20100683 Ry
     -----------------------------------------------


     total cpu time spent up to now is       35.6 secs

     total energy              =     -53.70098736 Ry
     estimated scf accuracy    <       0.00002219 Ry

     iteration #  6     ecut=   120.00 Ry     beta= 0.70
     Davidson diagonalization with overlap

---- Real-time Memory Report at c_bands before calling an iterative solver
             0 MiB given to the printing process from OS
             0 MiB allocation reported by mallinfo(arena+hblkhd)
             0 MiB available memory on the node where the printing process lives
------------------
     ethr =  1.39E-07,  avg # of iterations =  2.2


     -----------------------------------------------
     Non-local corr. energy    =       0.20101728 Ry
     -----------------------------------------------


     total cpu time spent up to now is       36.6 secs

     End of self-consistent calculation

          k = 0.0000 0.0000 0.0000 ( 16399 PWs)   bands (ev):

   -20.1742 -20.0112  -8.2812  -7.1564  -3.8696  -3.8696  -3.8472  -3.8471
     2.0410   2.5791   3.7466   4.7826

     occupation numbers 
     1.0000   1.0000   1.0000   1.0000   1.0000   1.0000   1.0000   1.0000
     0.0000   0.0000   0.0000   0.0000

          k = 0.0000 0.0962 0.0000 ( 16391 PWs)   bands (ev):

   -20.0401 -19.8795  -8.0981  -6.9826  -4.4297  -4.3914  -4.1263  -4.1021
     2.2733   2.7924   3.9695   4.9989

     occupation numbers 
     1.0000   1.0000   1.0000   1.0000   1.0000   1.0000   1.0000   1.0000
     0.0000   0.0000   0.0000   0.0000

          k = 0.0000 0.1925 0.0000 ( 16390 PWs)   bands (ev):

   -19.6453 -19.4918  -7.5575  -6.4742  -5.8371  -5.7678  -4.7522  -4.7242
     2.9326   3.4143   4.6242   5.5408

     occupation numbers 
     1.0000   1.0000   1.0000   1.0000   1.0000   1.0000   1.0000   1.0000
     0.0000   0.0000   0.0000   0.0000

          k = 0.0000 0.2887 0.0000 ( 16370 PWs)   bands (ev):

   -19.0169 -18.8753  -7.6322  -7.5356  -6.6711  -5.6439  -5.4789  -5.4473
     3.9720   4.3734   5.4230   5.8288

     occupation numbers 
     1.0000   1.0000   1.0000   1.0000   1.0000   1.0000   1.0000   1.0000
     0.0000   0.0000   0.0000   0.0000

          k = 0.0000 0.3849 0.0000 ( 16376 PWs)   bands (ev):

   -18.2236 -18.0989  -9.4041  -9.2871  -6.1038  -6.0697  -5.5421  -4.6015
     4.0990   4.8806   5.3297   6.5423

     occupation numbers 
     1.0000   1.0000   1.0000   1.0000   1.0000   1.0000   1.0000   1.0000
     0.0000   0.0000   0.0000   0.0000

          k = 0.0000 0.4811 0.0000 ( 16402 PWs)   bands (ev):

   -17.4425 -17.3382 -10.8287 -10.6877  -6.5140  -6.4784  -4.3565  -3.5534
     2.4430   3.6767   6.6061   7.5450

     occupation numbers 
     1.0000   1.0000   1.0000   1.0000   1.0000   1.0000   1.0000   1.0000
     0.0000   0.0000   0.0000   0.0000

          k = 0.0000-0.5774 0.0000 ( 16394 PWs)   bands (ev):

   -17.0737 -16.9814 -11.4200 -11.2658  -6.6560  -6.6199  -3.7437  -3.0437
     1.6368   3.0096   6.9853   7.7006

     occupation numbers 
     1.0000   1.0000   1.0000   1.0000   1.0000   1.0000   1.0000   1.0000
     0.0000   0.0000   0.0000   0.0000

          k = 0.0833 0.1443 0.0000 ( 16405 PWs)   bands (ev):

   -19.7756 -19.6197  -7.7359  -6.6403  -5.3458  -5.2880  -4.6354  -4.6056
     2.7199   3.2107   4.4093   5.4073

     occupation numbers 
     1.0000   1.0000   1.0000   1.0000   1.0000   1.0000   1.0000   1.0000
     0.0000   0.0000   0.0000   0.0000

          k = 0.0833 0.2406 0.0000 ( 16381 PWs)   bands (ev):

   -19.2626 -19.1162  -7.0552  -6.8015  -6.7610  -5.9622  -5.4241  -5.3857
     3.5770   4.0123   5.2531   5.7741

     occupation numbers 
     1.0000   1.0000   1.0000   1.0000   1.0000   1.0000   1.0000   1.0000
     0.0000   0.0000   0.0000   0.0000

          k = 0.0833 0.3368 0.0000 ( 16367 PWs)   bands (ev):

   -18.5454 -18.4134  -8.5519  -8.4486  -6.1751  -6.1274  -6.0036  -5.0258
     4.7574   4.8900   4.9452   6.6111

     occupation numbers 
     1.0000   1.0000   1.0000   1.0000   1.0000   1.0000   1.0000   1.0000
     0.0000   0.0000   0.0000   0.0000

          k = 0.0833 0.4330 0.0000 ( 16378 PWs)   bands (ev):

   -17.7342 -17.6212 -10.1400 -10.0135  -6.7224  -6.6751  -4.8156  -3.9488
     3.2182   4.2984   6.2935   7.2516

     occupation numbers 
     1.0000   1.0000   1.0000   1.0000   1.0000   1.0000   1.0000   1.0000
     0.0000   0.0000   0.0000   0.0000

          k = 0.0833 0.5292 0.0000 ( 16379 PWs)   bands (ev):

   -17.1061 -17.0115 -11.1867 -11.0395  -7.0113  -6.9625  -3.8112  -3.0899
     1.8852   3.1960   7.3762   8.2214

     occupation numbers 
     1.0000   1.0000   1.0000   1.0000   1.0000   1.0000   1.0000   1.0000
     0.0000   0.0000   0.0000   0.0000

          k = 0.1667 0.2887 0.0000 ( 16366 PWs)   bands (ev):

   -18.6567 -18.5222  -8.0481  -7.9548  -6.4481  -6.3881  -6.1621  -5.1717
     4.6300   4.8689   5.1449   6.4178

     occupation numbers 
     1.0000   1.0000   1.0000   1.0000   1.0000   1.0000   1.0000   1.0000
     0.0000   0.0000   0.0000   0.0000

          k = 0.1667 0.3849 0.0000 ( 16360 PWs)   bands (ev):

   -17.8997 -17.7818  -9.3983  -9.2897  -7.3125  -7.2422  -5.0704  -4.1710
     3.8307   4.7432   6.0717   6.9815

     occupation numbers 
     1.0000   1.0000   1.0000   1.0000   1.0000   1.0000   1.0000   1.0000
     0.0000   0.0000   0.0000   0.0000

          k = 0.1667 0.4811 0.0000 ( 16379 PWs)   bands (ev):

   -17.1681 -17.0695 -10.5890 -10.4599  -7.8342  -7.7576  -3.9364  -3.1780
     2.4200   3.5905   7.7240   8.5671

     occupation numbers 
     1.0000   1.0000   1.0000   1.0000   1.0000   1.0000   1.0000   1.0000
     0.0000   0.0000   0.0000   0.0000

          k = 0.1667 0.5774 0.0000 ( 16386 PWs)   bands (ev):

   -16.8303 -16.7425 -11.0974 -10.9568  -8.0059  -7.9275  -3.3582  -2.7019
     1.7243   3.0150   8.6651   9.6471

     occupation numbers 
     1.0000   1.0000   1.0000   1.0000   1.0000   1.0000   1.0000   1.0000
     0.0000   0.0000   0.0000   0.0000

          k = 0.2500 0.4330 0.0000 ( 16348 PWs)   bands (ev):

   -17.1978 -17.0973 -10.1242 -10.0116  -8.4035  -8.3064  -3.9948  -3.2200
     2.7155   3.8021   7.6815   8.4127

     occupation numbers 
     1.0000   1.0000   1.0000   1.0000   1.0000   1.0000   1.0000   1.0000
     0.0000   0.0000   0.0000   0.0000

          k = 0.2500 0.5292 0.0000 ( 16377 PWs)   bands (ev):

   -16.6863 -16.6009 -10.6395 -10.5207  -9.0159  -8.9032  -3.1283  -2.4958
     1.8353   3.0454   9.2124   9.4084

     occupation numbers 
     1.0000   1.0000   1.0000   1.0000   1.0000   1.0000   1.0000   1.0000
     0.0000   0.0000   0.0000   0.0000

          k = 0.3333 0.5774 0.0000 ( 16404 PWs)   bands (ev):

   -16.4916 -16.4117 -10.4131 -10.3247  -9.7110  -9.5578  -2.7738  -2.2078
     1.6038   2.8325   8.7843  10.2388

     occupation numbers 
     1.0000   1.0000   1.0000   1.0000   1.0000   1.0000   1.0000   1.0000
     0.0000   0.0000   0.0000   0.0000

     the Fermi energy is    -0.9960 ev

!    total energy              =     -53.70099097 Ry
     estimated scf accuracy    <       0.00000034 Ry
     smearing contrib. (-TS)   =       0.00000000 Ry
     internal energy E=F+TS    =     -53.70099097 Ry

     The total energy is F=E-TS. E is the sum of the following terms:
     one-electron contribution =    -536.86750957 Ry
     hartree contribution      =     272.60283946 Ry
     xc contribution           =     -17.39265868 Ry
     ewald contribution        =     227.95633782 Ry

     convergence has been achieved in   6 iterations


     -----------------------------------------------
     Non-local corr. energy    =       0.20101728 Ry
     -----------------------------------------------


     Forces acting on atoms (cartesian axes, Ry/au):

     atom    1 type  1   force =     0.00000000   -0.00000000   -0.00206868
     atom    2 type  2   force =     0.00000000    0.00000000   -0.00231444
     atom    3 type  1   force =     0.00000000    0.00000000    0.00226340
     atom    4 type  2   force =     0.00000000    0.00000000    0.00211972
     The non-local contrib.  to forces
     atom    1 type  1   force =     0.00000000   -0.00000000   -0.00271730
     atom    2 type  2   force =    -0.00000000   -0.00000000   -0.00534476
     atom    3 type  1   force =     0.00000000   -0.00000000    0.00271214
     atom    4 type  2   force =     0.00000000    0.00000000    0.00444400
     The ionic contribution  to forces
     atom    1 type  1   force =     0.00000773   -0.00000446  -10.41750728
     atom    2 type  2   force =    -0.00000773    0.00000446  -17.36674110
     atom    3 type  1   force =     0.00000773   -0.00000446   10.41442370
     atom    4 type  2   force =    -0.00000773    0.00000446   17.36982469
     The local contribution  to forces
     atom    1 type  1   force =    -0.00000000    0.00000000   10.41876082
     atom    2 type  2   force =    -0.00003350    0.00001934   17.37097927
     atom    3 type  1   force =    -0.00000000    0.00000000  -10.41554868
     atom    4 type  2   force =    -0.00003350    0.00001934  -17.37349702
     The core correction contribution to forces
     atom    1 type  1   force =     0.00000000   -0.00000000    0.00011227
     atom    2 type  2   force =     0.00000139   -0.00000080    0.00021664
     atom    3 type  1   force =     0.00000000   -0.00000000   -0.00010582
     atom    4 type  2   force =     0.00000139   -0.00000080   -0.00019451
     The Hubbard contrib.    to forces
     atom    1 type  1   force =     0.00000000    0.00000000    0.00000000
     atom    2 type  2   force =     0.00000000    0.00000000    0.00000000
     atom    3 type  1   force =     0.00000000    0.00000000    0.00000000
     atom    4 type  2   force =     0.00000000    0.00000000    0.00000000
     The SCF correction term to forces
     atom    1 type  1   force =    -0.00000000    0.00000000   -0.00000000
     atom    2 type  2   force =     0.00000000   -0.00000000   -0.00000000
     atom    3 type  1   force =    -0.00000000    0.00000000    0.00077314
     atom    4 type  2   force =     0.00000000   -0.00000000    0.00153363

     Total force =     0.003101     Total SCF correction =     0.001717
     SCF correction compared to forces is large: reduce conv_thr to get better values


     Computing stress (Cartesian axis) and pressure



     -----------------------------------------------
     Non-local corr. energy    =       0.20101728 Ry
     -----------------------------------------------

          total   stress  (Ry/bohr**3)                   (kbar)     P=        5.24
   0.00003260  -0.00000000   0.00000000            4.80       -0.00        0.00
  -0.00000000   0.00003260  -0.00000000           -0.00        4.80       -0.00
   0.00000000  -0.00000000   0.00004171            0.00       -0.00        6.14

     kinetic stress (kbar)   4823.60      0.00     -0.00
                                0.00   4823.60      0.00
                               -0.00      0.00   5254.47

     local   stress (kbar)-109818.88      0.00      0.00
                                0.00-109818.88     -0.00
                                0.00     -0.00 110496.62

     nonloc. stress (kbar)   -796.24      0.00     -0.00
                                0.00   -796.24     -0.00
                               -0.00     -0.00   -769.69

     hartree stress (kbar)  53456.84     -0.00      0.00
                               -0.00  53456.84      0.00
                                0.00      0.00 -52620.16

     exc-cor stress (kbar)   -484.93     -0.00     -0.00
                               -0.00   -484.93      0.00
                               -0.00      0.00   -532.14

     corecor stress (kbar)   -541.15      0.00      0.00
                                0.00   -541.15     -0.00
                                0.00     -0.00   -529.43

     ewald   stress (kbar)  53361.17     -0.01     -0.00
                               -0.01  53361.16      0.00
                               -0.00      0.00 -61320.93

     hubbard stress (kbar)      0.00      0.00      0.00
                                0.00      0.00      0.00
                                0.00      0.00      0.00

     DFT-D   stress (kbar)      0.00      0.00      0.00
                                0.00      0.00      0.00
                                0.00      0.00      0.00

     XDM     stress (kbar)      0.00      0.00      0.00
                                0.00      0.00      0.00
                                0.00      0.00      0.00

     dft-nl  stress (kbar)      4.39      0.00      0.00
                                0.00      4.39     -0.00
                                0.00     -0.00     27.39

     TS-vdW  stress (kbar)      0.00      0.00      0.00
                                0.00      0.00      0.00
                                0.00      0.00      0.00

     MDB     stress (kbar)      0.00      0.00      0.00
                                0.00      0.00      0.00
                                0.00      0.00      0.00

     3D-RISM stress (kbar)      0.00      0.00      0.00
                                0.00      0.00      0.00
                                0.00      0.00      0.00

     Energy error            =      4.3E-05 Ry
     Gradient error          =      2.3E-03 Ry/Bohr
     Cell gradient error     =      6.1E+00 kbar

     number of scf cycles    =   2
     number of bfgs steps    =   1

     enthalpy           old  =     -53.7009478241 Ry
     enthalpy           new  =     -53.7009909738 Ry

     CASE: enthalpy          _new < enthalpy          _old


     WARNING: bfgs curvature condition failed, Theta= 0.831
     new trust radius        =       0.0085259821 bohr
     new conv_thr            =       0.0000000100 Ry

     new unit-cell volume =    739.75981 a.u.^3 (   109.62109 Ang^3 )
     density =      0.72744 g/cm^3

CELL_PARAMETERS (alat=  4.74000000)
   1.000000000   0.000000000   0.000000000
  -0.500000000   0.866025404   0.000000000
   0.000000000   0.000000000   8.020936425

ATOMIC_POSITIONS (crystal)
B             0.0000000000        0.0000000000        0.0000000000    0   0   0
N             0.6666670000        0.3333330000        0.0000000000    0   0   0
B             0.0000000000        0.0000000000        0.1640458471
N             0.6666670000        0.3333330000        0.1640698812



     Writing config-only to output data dir ./tmp/BN2L_AA_PBE_vdW.save/
     NEW-OLD atomic charge density approx. for the potential

     negative rho (up, down):  3.050E-07 0.000E+00


     -----------------------------------------------
     Non-local corr. energy    =       0.20131836 Ry
     -----------------------------------------------

     extrapolated charge   16.02506, renormalised to   16.00000

     total cpu time spent up to now is       42.0 secs

     Self-consistent Calculation

     iteration #  1     ecut=   120.00 Ry     beta= 0.70
     Davidson diagonalization with overlap

---- Real-time Memory Report at c_bands before calling an iterative solver
             0 MiB given to the printing process from OS
             0 MiB allocation reported by mallinfo(arena+hblkhd)
             0 MiB available memory on the node where the printing process lives
------------------
     c_bands:  1 eigenvalues not converged
     ethr =  1.00E-06,  avg # of iterations = 10.8

     negative rho (up, down):  4.522E-08 0.000E+00


     -----------------------------------------------
     Non-local corr. energy    =       0.20071554 Ry
     -----------------------------------------------


     total cpu time spent up to now is       44.2 secs

     total energy              =     -53.70000100 Ry
     estimated scf accuracy    <       0.00083266 Ry

     iteration #  2     ecut=   120.00 Ry     beta= 0.70
     Davidson diagonalization with overlap

---- Real-time Memory Report at c_bands before calling an iterative solver
             0 MiB given to the printing process from OS
             0 MiB allocation reported by mallinfo(arena+hblkhd)
             0 MiB available memory on the node where the printing process lives
------------------
     c_bands:  1 eigenvalues not converged
     ethr =  5.20E-06,  avg # of iterations = 11.0

     negative rho (up, down):  2.961E-08 0.000E+00


     -----------------------------------------------
     Non-local corr. energy    =       0.20087896 Ry
     -----------------------------------------------


     total cpu time spent up to now is       46.3 secs

     total energy              =     -53.70086233 Ry
     estimated scf accuracy    <       0.00317032 Ry

     iteration #  3     ecut=   120.00 Ry     beta= 0.70
     Davidson diagonalization with overlap

---- Real-time Memory Report at c_bands before calling an iterative solver
             0 MiB given to the printing process from OS
             0 MiB allocation reported by mallinfo(arena+hblkhd)
             0 MiB available memory on the node where the printing process lives
------------------
     ethr =  5.20E-06,  avg # of iterations =  4.3

     negative rho (up, down):  2.389E-08 0.000E+00


     -----------------------------------------------
     Non-local corr. energy    =       0.20094165 Ry
     -----------------------------------------------


     total cpu time spent up to now is       47.7 secs

     total energy              =     -53.70110348 Ry
     estimated scf accuracy    <       0.00035309 Ry

     iteration #  4     ecut=   120.00 Ry     beta= 0.70
     Davidson diagonalization with overlap

---- Real-time Memory Report at c_bands before calling an iterative solver
             0 MiB given to the printing process from OS
             0 MiB allocation reported by mallinfo(arena+hblkhd)
             0 MiB available memory on the node where the printing process lives
------------------
     ethr =  2.21E-06,  avg # of iterations =  1.9

     negative rho (up, down):  1.495E-08 0.000E+00


     -----------------------------------------------
     Non-local corr. energy    =       0.20101123 Ry
     -----------------------------------------------


     total cpu time spent up to now is       48.7 secs

     total energy              =     -53.70105946 Ry
     estimated scf accuracy    <       0.00019312 Ry

     iteration #  5     ecut=   120.00 Ry     beta= 0.70
     Davidson diagonalization with overlap

---- Real-time Memory Report at c_bands before calling an iterative solver
             0 MiB given to the printing process from OS
             0 MiB allocation reported by mallinfo(arena+hblkhd)
             0 MiB available memory on the node where the printing process lives
------------------
     ethr =  1.21E-06,  avg # of iterations =  2.5


     -----------------------------------------------
     Non-local corr. energy    =       0.20109132 Ry
     -----------------------------------------------


     total cpu time spent up to now is       49.8 secs

     total energy              =     -53.70104294 Ry
     estimated scf accuracy    <       0.00005439 Ry

     iteration #  6     ecut=   120.00 Ry     beta= 0.70
     Davidson diagonalization with overlap

---- Real-time Memory Report at c_bands before calling an iterative solver
             0 MiB given to the printing process from OS
             0 MiB allocation reported by mallinfo(arena+hblkhd)
             0 MiB available memory on the node where the printing process lives
------------------
     ethr =  3.40E-07,  avg # of iterations =  4.1


     -----------------------------------------------
     Non-local corr. energy    =       0.20109393 Ry
     -----------------------------------------------


     total cpu time spent up to now is       51.0 secs

     total energy              =     -53.70105329 Ry
     estimated scf accuracy    <       0.00000028 Ry

     iteration #  7     ecut=   120.00 Ry     beta= 0.70
     Davidson diagonalization with overlap

---- Real-time Memory Report at c_bands before calling an iterative solver
             0 MiB given to the printing process from OS
             0 MiB allocation reported by mallinfo(arena+hblkhd)
             0 MiB available memory on the node where the printing process lives
------------------
     ethr =  1.76E-09,  avg # of iterations =  4.9


     -----------------------------------------------
     Non-local corr. energy    =       0.20109402 Ry
     -----------------------------------------------


     total cpu time spent up to now is       52.6 secs

     total energy              =     -53.70105390 Ry
     estimated scf accuracy    <       0.00000020 Ry

     iteration #  8     ecut=   120.00 Ry     beta= 0.70
     Davidson diagonalization with overlap

---- Real-time Memory Report at c_bands before calling an iterative solver
             0 MiB given to the printing process from OS
             0 MiB allocation reported by mallinfo(arena+hblkhd)
             0 MiB available memory on the node where the printing process lives
------------------
     ethr =  1.23E-09,  avg # of iterations =  1.0


     -----------------------------------------------
     Non-local corr. energy    =       0.20109891 Ry
     -----------------------------------------------


     total cpu time spent up to now is       53.6 secs

     total energy              =     -53.70105378 Ry
     estimated scf accuracy    <       0.00000024 Ry

     iteration #  9     ecut=   120.00 Ry     beta= 0.70
     Davidson diagonalization with overlap

---- Real-time Memory Report at c_bands before calling an iterative solver
             0 MiB given to the printing process from OS
             0 MiB allocation reported by mallinfo(arena+hblkhd)
             0 MiB available memory on the node where the printing process lives
------------------
     ethr =  1.23E-09,  avg # of iterations =  1.8


     -----------------------------------------------
     Non-local corr. energy    =       0.20109880 Ry
     -----------------------------------------------


     total cpu time spent up to now is       54.6 secs

     total energy              =     -53.70105380 Ry
     estimated scf accuracy    <       0.00000001 Ry

     iteration # 10     ecut=   120.00 Ry     beta= 0.70
     Davidson diagonalization with overlap

---- Real-time Memory Report at c_bands before calling an iterative solver
             0 MiB given to the printing process from OS
             0 MiB allocation reported by mallinfo(arena+hblkhd)
             0 MiB available memory on the node where the printing process lives
------------------
     ethr =  8.29E-11,  avg # of iterations =  3.8


     -----------------------------------------------
     Non-local corr. energy    =       0.20110038 Ry
     -----------------------------------------------


     total cpu time spent up to now is       56.0 secs

     End of self-consistent calculation

          k = 0.0000 0.0000 0.0000 ( 16399 PWs)   bands (ev):

   -20.1755 -20.0152  -8.2789  -7.1651  -3.8722  -3.8722  -3.8502  -3.8501
     2.0338   2.5724   3.7398   4.8386

     occupation numbers 
     1.0000   1.0000   1.0000   1.0000   1.0000   1.0000   1.0000   1.0000
     0.0000   0.0000   0.0000   0.0000

          k = 0.0000 0.0962 0.0000 ( 16391 PWs)   bands (ev):

   -20.0415 -19.8835  -8.0958  -6.9912  -4.4322  -4.3945  -4.1289  -4.1051
     2.2661   2.7857   3.9627   5.0383

     occupation numbers 
     1.0000   1.0000   1.0000   1.0000   1.0000   1.0000   1.0000   1.0000
     0.0000   0.0000   0.0000   0.0000

          k = 0.0000 0.1925 0.0000 ( 16390 PWs)   bands (ev):

   -19.6467 -19.4957  -7.5551  -6.4826  -5.8394  -5.7712  -4.7547  -4.7272
     2.9256   3.4078   4.6174   5.5258

     occupation numbers 
     1.0000   1.0000   1.0000   1.0000   1.0000   1.0000   1.0000   1.0000
     0.0000   0.0000   0.0000   0.0000

          k = 0.0000 0.2887 0.0000 ( 16370 PWs)   bands (ev):

   -19.0184 -18.8792  -7.6339  -7.5390  -6.6692  -5.6522  -5.4813  -5.4503
     3.9650   4.3671   5.4153   5.8238

     occupation numbers 
     1.0000   1.0000   1.0000   1.0000   1.0000   1.0000   1.0000   1.0000
     0.0000   0.0000   0.0000   0.0000

          k = 0.0000 0.3849 0.0000 ( 16376 PWs)   bands (ev):

   -18.2253 -18.1027  -9.4057  -9.2906  -6.1062  -6.0727  -5.5402  -4.6095
     4.0995   4.8746   5.3227   6.5333

     occupation numbers 
     1.0000   1.0000   1.0000   1.0000   1.0000   1.0000   1.0000   1.0000
     0.0000   0.0000   0.0000   0.0000

          k = 0.0000 0.4811 0.0000 ( 16402 PWs)   bands (ev):

   -17.4443 -17.3419 -10.8300 -10.6913  -6.5164  -6.4815  -4.3550  -3.5609
     2.4454   3.6687   6.6022   7.5384

     occupation numbers 
     1.0000   1.0000   1.0000   1.0000   1.0000   1.0000   1.0000   1.0000
     0.0000   0.0000   0.0000   0.0000

          k = 0.0000-0.5774 0.0000 ( 16394 PWs)   bands (ev):

   -17.0757 -16.9850 -11.4212 -11.2695  -6.6583  -6.6229  -3.7425  -3.0508
     1.6399   3.0010   6.9843   7.6949

     occupation numbers 
     1.0000   1.0000   1.0000   1.0000   1.0000   1.0000   1.0000   1.0000
     0.0000   0.0000   0.0000   0.0000

          k = 0.0833 0.1443 0.0000 ( 16405 PWs)   bands (ev):

   -19.7769 -19.6236  -7.7336  -6.6488  -5.3482  -5.2912  -4.6379  -4.6087
     2.7128   3.2042   4.4027   5.3916

     occupation numbers 
     1.0000   1.0000   1.0000   1.0000   1.0000   1.0000   1.0000   1.0000
     0.0000   0.0000   0.0000   0.0000

          k = 0.0833 0.2406 0.0000 ( 16381 PWs)   bands (ev):

   -19.2641 -19.1201  -7.0529  -6.8037  -6.7643  -5.9706  -5.4264  -5.3888
     3.5700   4.0059   5.2456   5.7640

     occupation numbers 
     1.0000   1.0000   1.0000   1.0000   1.0000   1.0000   1.0000   1.0000
     0.0000   0.0000   0.0000   0.0000

          k = 0.0833 0.3368 0.0000 ( 16367 PWs)   bands (ev):

   -18.5469 -18.4171  -8.5536  -8.4520  -6.1771  -6.1305  -6.0019  -5.0339
     4.7538   4.8849   4.9391   6.6054

     occupation numbers 
     1.0000   1.0000   1.0000   1.0000   1.0000   1.0000   1.0000   1.0000
     0.0000   0.0000   0.0000   0.0000

          k = 0.0833 0.4330 0.0000 ( 16378 PWs)   bands (ev):

   -17.7360 -17.6249 -10.1415 -10.0171  -6.7247  -6.6781  -4.8139  -3.9565
     3.2199   4.2912   6.2871   7.2433

     occupation numbers 
     1.0000   1.0000   1.0000   1.0000   1.0000   1.0000   1.0000   1.0000
     0.0000   0.0000   0.0000   0.0000

          k = 0.0833 0.5292 0.0000 ( 16379 PWs)   bands (ev):

   -17.1080 -17.0152 -11.1880 -11.0431  -7.0135  -6.9656  -3.8099  -3.0971
     1.8882   3.1876   7.3739   8.2150

     occupation numbers 
     1.0000   1.0000   1.0000   1.0000   1.0000   1.0000   1.0000   1.0000
     0.0000   0.0000   0.0000   0.0000

          k = 0.1667 0.2887 0.0000 ( 16366 PWs)   bands (ev):

   -18.6583 -18.5260  -8.0499  -7.9581  -6.4501  -6.3912  -6.1604  -5.1799
     4.6233   4.8628   5.1414   6.4121

     occupation numbers 
     1.0000   1.0000   1.0000   1.0000   1.0000   1.0000   1.0000   1.0000
     0.0000   0.0000   0.0000   0.0000

          k = 0.1667 0.3849 0.0000 ( 16360 PWs)   bands (ev):

   -17.9014 -17.7855  -9.4000  -9.2931  -7.3144  -7.2454  -5.0687  -4.1788
     3.8318   4.7366   6.0645   6.9734

     occupation numbers 
     1.0000   1.0000   1.0000   1.0000   1.0000   1.0000   1.0000   1.0000
     0.0000   0.0000   0.0000   0.0000

          k = 0.1667 0.4811 0.0000 ( 16379 PWs)   bands (ev):

   -17.1700 -17.0731 -10.5904 -10.4635  -7.8361  -7.7609  -3.9351  -3.1853
     2.4227   3.5826   7.7177   8.5595

     occupation numbers 
     1.0000   1.0000   1.0000   1.0000   1.0000   1.0000   1.0000   1.0000
     0.0000   0.0000   0.0000   0.0000

          k = 0.1667 0.5774 0.0000 ( 16386 PWs)   bands (ev):

   -16.8323 -16.7461 -11.0987 -10.9604  -8.0078  -7.9308  -3.3573  -2.7089
     1.7276   3.0066   8.6627   9.6407

     occupation numbers 
     1.0000   1.0000   1.0000   1.0000   1.0000   1.0000   1.0000   1.0000
     0.0000   0.0000   0.0000   0.0000

          k = 0.2500 0.4330 0.0000 ( 16348 PWs)   bands (ev):

   -17.1997 -17.1010 -10.1259 -10.0151  -8.4052  -8.3098  -3.9935  -3.2274
     2.7180   3.7945   7.6745   8.4053

     occupation numbers 
     1.0000   1.0000   1.0000   1.0000   1.0000   1.0000   1.0000   1.0000
     0.0000   0.0000   0.0000   0.0000

          k = 0.2500 0.5292 0.0000 ( 16377 PWs)   bands (ev):

   -16.6884 -16.6045 -10.6410 -10.5241  -9.0175  -8.9066  -3.1275  -2.5027
     1.8387   3.0371   9.2117   9.4027

     occupation numbers 
     1.0000   1.0000   1.0000   1.0000   1.0000   1.0000   1.0000   1.0000
     0.0000   0.0000   0.0000   0.0000

          k = 0.3333 0.5774 0.0000 ( 16404 PWs)   bands (ev):

   -16.4937 -16.4153 -10.4150 -10.3280  -9.7121  -9.5615  -2.7733  -2.2145
     1.6077   2.8242   8.7847  10.2351

     occupation numbers 
     1.0000   1.0000   1.0000   1.0000   1.0000   1.0000   1.0000   1.0000
     0.0000   0.0000   0.0000   0.0000

     the Fermi energy is    -0.9988 ev

!    total energy              =     -53.70105381 Ry
     estimated scf accuracy    <          7.0E-09 Ry
     smearing contrib. (-TS)   =       0.00000000 Ry
     internal energy E=F+TS    =     -53.70105381 Ry

     The total energy is F=E-TS. E is the sum of the following terms:
     one-electron contribution =    -537.62364354 Ry
     hartree contribution      =     272.97459391 Ry
     xc contribution           =     -17.39207366 Ry
     ewald contribution        =     228.34006949 Ry

     convergence has been achieved in  10 iterations


     -----------------------------------------------
     Non-local corr. energy    =       0.20110038 Ry
     -----------------------------------------------


     Forces acting on atoms (cartesian axes, Ry/au):

     atom    1 type  1   force =     0.00000000    0.00000000   -0.00204166
     atom    2 type  2   force =     0.00000000    0.00000000   -0.00256742
     atom    3 type  1   force =     0.00000000    0.00000000    0.00230830
     atom    4 type  2   force =     0.00000000    0.00000000    0.00230078
     The non-local contrib.  to forces
     atom    1 type  1   force =     0.00000000    0.00000000   -0.00259642
     atom    2 type  2   force =    -0.00000000   -0.00000000   -0.00543468
     atom    3 type  1   force =     0.00000000    0.00000000    0.00255541
     atom    4 type  2   force =     0.00000000    0.00000000    0.00405116
     The ionic contribution  to forces
     atom    1 type  1   force =     0.00000773   -0.00000446  -10.41458766
     atom    2 type  2   force =    -0.00000773    0.00000446  -17.36178542
     atom    3 type  1   force =     0.00000773   -0.00000446   10.40955704
     atom    4 type  2   force =    -0.00000773    0.00000446   17.36681604
     The local contribution  to forces
     atom    1 type  1   force =     0.00000000    0.00000000   10.41513587
     atom    2 type  2   force =    -0.00003350    0.00001934   17.36463992
     atom    3 type  1   force =    -0.00000000    0.00000000  -10.40980637
     atom    4 type  2   force =    -0.00003350    0.00001934  -17.36858321
     The core correction contribution to forces
     atom    1 type  1   force =     0.00000000   -0.00000000    0.00010129
     atom    2 type  2   force =     0.00000139   -0.00000080    0.00020925
     atom    3 type  1   force =     0.00000000   -0.00000000   -0.00008962
     atom    4 type  2   force =     0.00000139   -0.00000080   -0.00017396
     The Hubbard contrib.    to forces
     atom    1 type  1   force =     0.00000000    0.00000000    0.00000000
     atom    2 type  2   force =     0.00000000    0.00000000    0.00000000
     atom    3 type  1   force =     0.00000000    0.00000000    0.00000000
     atom    4 type  2   force =     0.00000000    0.00000000    0.00000000
     The SCF correction term to forces
     atom    1 type  1   force =     0.00000000   -0.00000000   -0.00000000
     atom    2 type  2   force =     0.00000000   -0.00000000   -0.00000000
     atom    3 type  1   force =     0.00000000   -0.00000000    0.00009268
     atom    4 type  2   force =     0.00000000   -0.00000000    0.00019158

     Total force =     0.003259     Total SCF correction =     0.000213


     Computing stress (Cartesian axis) and pressure



     -----------------------------------------------
     Non-local corr. energy    =       0.20110038 Ry
     -----------------------------------------------

          total   stress  (Ry/bohr**3)                   (kbar)     P=        5.04
   0.00003190   0.00000000   0.00000000            4.69        0.00        0.00
   0.00000000   0.00003190   0.00000000            0.00        4.69        0.00
   0.00000000   0.00000000   0.00003895            0.00        0.00        5.73

     kinetic stress (kbar)   4815.77      0.00      0.00
                                0.00   4815.77      0.00
                                0.00     -0.00   5245.73

     local   stress (kbar)-109797.41      0.00      0.00
                                0.00-109797.41     -0.00
                                0.00     -0.00 110474.25

     nonloc. stress (kbar)   -794.84     -0.00      0.00
                               -0.00   -794.84     -0.00
                                0.00     -0.00   -768.30

     hartree stress (kbar)  53447.25     -0.00      0.00
                               -0.00  53447.25     -0.00
                                0.00     -0.00 -52612.09

     exc-cor stress (kbar)   -484.14     -0.00     -0.00
                               -0.00   -484.14      0.00
                               -0.00      0.00   -531.30

     corecor stress (kbar)   -540.30      0.00      0.00
                                0.00   -540.30     -0.00
                                0.00     -0.00   -528.59

     ewald   stress (kbar)  53353.97     -0.01     -0.00
                               -0.01  53353.97      0.00
                               -0.00      0.00 -61301.33

     hubbard stress (kbar)      0.00      0.00      0.00
                                0.00      0.00      0.00
                                0.00      0.00      0.00

     DFT-D   stress (kbar)      0.00      0.00      0.00
                                0.00      0.00      0.00
                                0.00      0.00      0.00

     XDM     stress (kbar)      0.00      0.00      0.00
                                0.00      0.00      0.00
                                0.00      0.00      0.00

     dft-nl  stress (kbar)      4.38      0.00      0.00
                                0.00      4.38     -0.00
                                0.00     -0.00     27.37

     TS-vdW  stress (kbar)      0.00      0.00      0.00
                                0.00      0.00      0.00
                                0.00      0.00      0.00

     MDB     stress (kbar)      0.00      0.00      0.00
                                0.00      0.00      0.00
                                0.00      0.00      0.00

     3D-RISM stress (kbar)      0.00      0.00      0.00
                                0.00      0.00      0.00
                                0.00      0.00      0.00

     Energy error            =      6.3E-05 Ry
     Gradient error          =      2.3E-03 Ry/Bohr
     Cell gradient error     =      5.7E+00 kbar

     number of scf cycles    =   3
     number of bfgs steps    =   2

     enthalpy           old  =     -53.7009909738 Ry
     enthalpy           new  =     -53.7010538060 Ry

     CASE: enthalpy          _new < enthalpy          _old

     new trust radius        =       0.0127789546 bohr
     new conv_thr            =       0.0000000100 Ry

     new unit-cell volume =    741.49765 a.u.^3 (   109.87862 Ang^3 )
     density =      0.72573 g/cm^3

CELL_PARAMETERS (alat=  4.74000000)
   1.000000000   0.000000000   0.000000000
  -0.500000000   0.866025404   0.000000000
   0.000000000   0.000000000   8.039779208

ATOMIC_POSITIONS (crystal)
B             0.0000000000        0.0000000000        0.0000000000    0   0   0
N             0.6666670000        0.3333330000        0.0000000000    0   0   0
B             0.0000000000        0.0000000000        0.1641860250
N             0.6666670000        0.3333330000        0.1642285367



     Writing config-only to output data dir ./tmp/BN2L_AA_PBE_vdW.save/
     NEW-OLD atomic charge density approx. for the potential

     negative rho (up, down):  6.299E-07 0.000E+00


     -----------------------------------------------
     Non-local corr. energy    =       0.20155380 Ry
     -----------------------------------------------

     extrapolated charge   16.03750, renormalised to   16.00000

     total cpu time spent up to now is       61.5 secs

     Self-consistent Calculation

     iteration #  1     ecut=   120.00 Ry     beta= 0.70
     Davidson diagonalization with overlap

---- Real-time Memory Report at c_bands before calling an iterative solver
             0 MiB given to the printing process from OS
             0 MiB allocation reported by mallinfo(arena+hblkhd)
             0 MiB available memory on the node where the printing process lives
------------------
     c_bands:  1 eigenvalues not converged
     c_bands:  1 eigenvalues not converged
     ethr =  1.00E-06,  avg # of iterations = 11.9

     negative rho (up, down):  8.095E-08 0.000E+00


     -----------------------------------------------
     Non-local corr. energy    =       0.20065512 Ry
     -----------------------------------------------


     total cpu time spent up to now is       63.9 secs

     total energy              =     -53.69884725 Ry
     estimated scf accuracy    <       0.00176774 Ry

     iteration #  2     ecut=   120.00 Ry     beta= 0.70
     Davidson diagonalization with overlap

---- Real-time Memory Report at c_bands before calling an iterative solver
             0 MiB given to the printing process from OS
             0 MiB allocation reported by mallinfo(arena+hblkhd)
             0 MiB available memory on the node where the printing process lives
------------------
     c_bands:  1 eigenvalues not converged
     ethr =  1.10E-05,  avg # of iterations = 11.6

     negative rho (up, down):  5.241E-08 0.000E+00


     -----------------------------------------------
     Non-local corr. energy    =       0.20089328 Ry
     -----------------------------------------------


     total cpu time spent up to now is       66.1 secs

     total energy              =     -53.70075302 Ry
     estimated scf accuracy    <       0.00693243 Ry

     iteration #  3     ecut=   120.00 Ry     beta= 0.70
     Davidson diagonalization with overlap

---- Real-time Memory Report at c_bands before calling an iterative solver
             0 MiB given to the printing process from OS
             0 MiB allocation reported by mallinfo(arena+hblkhd)
             0 MiB available memory on the node where the printing process lives
------------------
     ethr =  1.10E-05,  avg # of iterations =  4.5

     negative rho (up, down):  4.217E-08 0.000E+00


     -----------------------------------------------
     Non-local corr. energy    =       0.20098921 Ry
     -----------------------------------------------


     total cpu time spent up to now is       67.5 secs

     total energy              =     -53.70126030 Ry
     estimated scf accuracy    <       0.00081097 Ry

     iteration #  4     ecut=   120.00 Ry     beta= 0.70
     Davidson diagonalization with overlap

---- Real-time Memory Report at c_bands before calling an iterative solver
[...]

---- Real-time Memory Report at c_bands before calling an iterative solver
             0 MiB given to the printing process from OS
             0 MiB allocation reported by mallinfo(arena+hblkhd)
             0 MiB available memory on the node where the printing process lives
------------------
     c_bands:  1 eigenvalues not converged
     ethr =  5.50E-06,  avg # of iterations =  5.2


     -----------------------------------------------
     Non-local corr. energy    =       0.20393245 Ry
     -----------------------------------------------


     total cpu time spent up to now is      317.2 secs

     total energy              =     -53.70201162 Ry
     estimated scf accuracy    <       0.00004895 Ry

     iteration #  7     ecut=   120.00 Ry     beta= 0.70
     Davidson diagonalization with overlap

---- Real-time Memory Report at c_bands before calling an iterative solver
             0 MiB given to the printing process from OS
             0 MiB allocation reported by mallinfo(arena+hblkhd)
             0 MiB available memory on the node where the printing process lives
------------------
     c_bands:  1 eigenvalues not converged
     ethr =  3.06E-07,  avg # of iterations =  5.6


     -----------------------------------------------
     Non-local corr. energy    =       0.20394111 Ry
     -----------------------------------------------


     total cpu time spent up to now is      318.7 secs

     total energy              =     -53.70201032 Ry
     estimated scf accuracy    <       0.00001696 Ry

     iteration #  8     ecut=   120.00 Ry     beta= 0.70
     Davidson diagonalization with overlap

---- Real-time Memory Report at c_bands before calling an iterative solver
             0 MiB given to the printing process from OS
             0 MiB allocation reported by mallinfo(arena+hblkhd)
             0 MiB available memory on the node where the printing process lives
------------------
     ethr =  1.06E-07,  avg # of iterations =  2.4


     -----------------------------------------------
     Non-local corr. energy    =       0.20394327 Ry
     -----------------------------------------------


     total cpu time spent up to now is      319.9 secs

     total energy              =     -53.70201234 Ry
     estimated scf accuracy    <       0.00000072 Ry

     iteration #  9     ecut=   120.00 Ry     beta= 0.70
     Davidson diagonalization with overlap

---- Real-time Memory Report at c_bands before calling an iterative solver
             0 MiB given to the printing process from OS
             0 MiB allocation reported by mallinfo(arena+hblkhd)
             0 MiB available memory on the node where the printing process lives
------------------
     ethr =  4.51E-09,  avg # of iterations =  3.4


     -----------------------------------------------
     Non-local corr. energy    =       0.20394422 Ry
     -----------------------------------------------


     total cpu time spent up to now is      321.4 secs

     total energy              =     -53.70201273 Ry
     estimated scf accuracy    <       0.00000002 Ry

     iteration # 10     ecut=   120.00 Ry     beta= 0.70
     Davidson diagonalization with overlap

---- Real-time Memory Report at c_bands before calling an iterative solver
             0 MiB given to the printing process from OS
             0 MiB allocation reported by mallinfo(arena+hblkhd)
             0 MiB available memory on the node where the printing process lives
------------------
     ethr =  1.17E-10,  avg # of iterations =  4.0


     -----------------------------------------------
     Non-local corr. energy    =       0.20394394 Ry
     -----------------------------------------------


     total cpu time spent up to now is      322.9 secs

     total energy              =     -53.70201273 Ry
     estimated scf accuracy    <       0.00000002 Ry

     iteration # 11     ecut=   120.00 Ry     beta= 0.70
     Davidson diagonalization with overlap

---- Real-time Memory Report at c_bands before calling an iterative solver
             0 MiB given to the printing process from OS
             0 MiB allocation reported by mallinfo(arena+hblkhd)
             0 MiB available memory on the node where the printing process lives
------------------
     ethr =  1.17E-10,  avg # of iterations =  1.1


     -----------------------------------------------
     Non-local corr. energy    =       0.20394484 Ry
     -----------------------------------------------


     total cpu time spent up to now is      323.9 secs

     End of self-consistent calculation

          k = 0.0000 0.0000 0.0000 ( 17353 PWs)   bands (ev):

   -20.3060 -20.2168  -8.2857  -7.5056  -4.0379  -4.0379  -4.0276  -4.0276
     1.7762   2.3536   3.4765   4.2821

     occupation numbers 
     1.0000   1.0000   1.0000   1.0000   1.0000   1.0000   1.0000   1.0000
     0.0000   0.0000   0.0000   0.0000

          k = 0.0000 0.0962 0.0000 ( 17361 PWs)   bands (ev):

   -20.1726 -20.0848  -8.1030  -7.3302  -4.5951  -4.5746  -4.2940  -4.2828
     2.0093   2.5684   3.6973   4.4788

     occupation numbers 
     1.0000   1.0000   1.0000   1.0000   1.0000   1.0000   1.0000   1.0000
     0.0000   0.0000   0.0000   0.0000

          k = 0.0000 0.1925 0.0000 ( 17342 PWs)   bands (ev):

   -19.7795 -19.6959  -7.5635  -6.8145  -5.9970  -5.9590  -4.9186  -4.9055
     2.6698   3.1940   4.3412   4.9948

     occupation numbers 
     1.0000   1.0000   1.0000   1.0000   1.0000   1.0000   1.0000   1.0000
     0.0000   0.0000   0.0000   0.0000

          k = 0.0000 0.2887 0.0000 ( 17318 PWs)   bands (ev):

   -19.1540 -19.0776  -7.7786  -7.7260  -6.6877  -5.9822  -5.6441  -5.6291
     3.7107   4.1604   5.0786   5.6052

     occupation numbers 
     1.0000   1.0000   1.0000   1.0000   1.0000   1.0000   1.0000   1.0000
     0.0000   0.0000   0.0000   0.0000

          k = 0.0000 0.3849 0.0000 ( 17308 PWs)   bands (ev):

   -18.3649 -18.2986  -9.5468  -9.4824  -6.2681  -6.2518  -5.5631  -4.9271
     4.0257   4.6244   5.0707   6.2324

     occupation numbers 
     1.0000   1.0000   1.0000   1.0000   1.0000   1.0000   1.0000   1.0000
     0.0000   0.0000   0.0000   0.0000

          k = 0.0000 0.4811 0.0000 ( 17334 PWs)   bands (ev):

   -17.5890 -17.5348 -10.9649 -10.8871  -6.6778  -6.6608  -4.3904  -3.8615
     2.4382   3.3371   6.4149   7.2631

     occupation numbers 
     1.0000   1.0000   1.0000   1.0000   1.0000   1.0000   1.0000   1.0000
     0.0000   0.0000   0.0000   0.0000

          k = 0.0000-0.5774 0.0000 ( 17350 PWs)   bands (ev):

   -17.2234 -17.1762 -11.5526 -11.4674  -6.8196  -6.8024  -3.7886  -3.3396
     1.6543   2.6475   6.8694   7.4352

     occupation numbers 
     1.0000   1.0000   1.0000   1.0000   1.0000   1.0000   1.0000   1.0000
     0.0000   0.0000   0.0000   0.0000

          k = 0.0833 0.1443 0.0000 ( 17367 PWs)   bands (ev):

   -19.9091 -19.8242  -7.7417  -6.9842  -5.5076  -5.4754  -4.8014  -4.7873
     2.4569   2.9894   4.1314   4.8398

     occupation numbers 
     1.0000   1.0000   1.0000   1.0000   1.0000   1.0000   1.0000   1.0000
     0.0000   0.0000   0.0000   0.0000

          k = 0.0833 0.2406 0.0000 ( 17325 PWs)   bands (ev):

   -19.3985 -19.3193  -7.0733  -6.9488  -6.9474  -6.3043  -5.5878  -5.5691
     3.3150   3.7965   4.9284   5.3757

     occupation numbers 
     1.0000   1.0000   1.0000   1.0000   1.0000   1.0000   1.0000   1.0000
     0.0000   0.0000   0.0000   0.0000

          k = 0.0833 0.3368 0.0000 ( 17313 PWs)   bands (ev):

   -18.6848 -18.6141  -8.6981  -8.6413  -6.3336  -6.3110  -6.0249  -5.3573
     4.5434   4.6911   4.7329   6.2613

     occupation numbers 
     1.0000   1.0000   1.0000   1.0000   1.0000   1.0000   1.0000   1.0000
     0.0000   0.0000   0.0000   0.0000

          k = 0.0833 0.4330 0.0000 ( 17322 PWs)   bands (ev):

   -17.8785 -17.8191 -10.2801 -10.2106  -6.8830  -6.8593  -4.8436  -4.2648
     3.1898   3.9852   6.0435   6.9765

     occupation numbers 
     1.0000   1.0000   1.0000   1.0000   1.0000   1.0000   1.0000   1.0000
     0.0000   0.0000   0.0000   0.0000

          k = 0.0833 0.5292 0.0000 ( 17339 PWs)   bands (ev):

   -17.2552 -17.2067 -11.3212 -11.2399  -7.1715  -7.1470  -3.8541  -3.3881
     1.8971   2.8410   7.2250   7.9489

     occupation numbers 
     1.0000   1.0000   1.0000   1.0000   1.0000   1.0000   1.0000   1.0000
     0.0000   0.0000   0.0000   0.0000

          k = 0.1667 0.2887 0.0000 ( 17328 PWs)   bands (ev):

   -18.7956 -18.7234  -8.1968  -8.1455  -6.6032  -6.5735  -6.1830  -5.5053
     4.3755   4.6610   4.9359   6.1845

     occupation numbers 
     1.0000   1.0000   1.0000   1.0000   1.0000   1.0000   1.0000   1.0000
     0.0000   0.0000   0.0000   0.0000

          k = 0.1667 0.3849 0.0000 ( 17302 PWs)   bands (ev):

   -18.0428 -17.9804  -9.5432  -9.4837  -7.4667  -7.4301  -5.0959  -4.4914
     3.7793   4.4567   5.8060   6.7082

     occupation numbers 
     1.0000   1.0000   1.0000   1.0000   1.0000   1.0000   1.0000   1.0000
     0.0000   0.0000   0.0000   0.0000

          k = 0.1667 0.4811 0.0000 ( 17323 PWs)   bands (ev):

   -17.3161 -17.2652 -10.7282 -10.6574  -7.9869  -7.9467  -3.9760  -3.4803
     2.4196   3.2517   7.4771   8.3129

     occupation numbers 
     1.0000   1.0000   1.0000   1.0000   1.0000   1.0000   1.0000   1.0000
     0.0000   0.0000   0.0000   0.0000

          k = 0.1667 0.5774 0.0000 ( 17326 PWs)   bands (ev):

   -16.9812 -16.9367 -11.2333 -11.1561  -8.1582  -8.1169  -3.4097  -2.9921
     1.7445   2.6576   8.5180   9.3794

     occupation numbers 
     1.0000   1.0000   1.0000   1.0000   1.0000   1.0000   1.0000   1.0000
     0.0000   0.0000   0.0000   0.0000

          k = 0.2500 0.4330 0.0000 ( 17286 PWs)   bands (ev):

   -17.3454 -17.2933 -10.2677 -10.2063  -8.5507  -8.4989  -4.0330  -3.5242
     2.7079   3.4727   7.4199   8.1661

     occupation numbers 
     1.0000   1.0000   1.0000   1.0000   1.0000   1.0000   1.0000   1.0000
     0.0000   0.0000   0.0000   0.0000

          k = 0.2500 0.5292 0.0000 ( 17327 PWs)   bands (ev):

   -16.8379 -16.7947 -10.7809 -10.7161  -9.1592  -9.0984  -3.1837  -2.7826
     1.8559   2.6935   9.0861   9.2055

     occupation numbers 
     1.0000   1.0000   1.0000   1.0000   1.0000   1.0000   1.0000   1.0000
     0.0000   0.0000   0.0000   0.0000

          k = 0.3333 0.5774 0.0000 ( 17334 PWs)   bands (ev):

   -16.6447 -16.6047 -10.5623 -10.5148  -9.8437  -9.7601  -2.8386  -2.4866
     1.6347   2.4755   8.7331  10.0602

     occupation numbers 
     1.0000   1.0000   1.0000   1.0000   1.0000   1.0000   1.0000   1.0000
     0.0000   0.0000   0.0000   0.0000

     the Fermi energy is    -1.1571 ev

!    total energy              =     -53.70201273 Ry
     estimated scf accuracy    <          5.6E-09 Ry
     smearing contrib. (-TS)   =       0.00000000 Ry
     internal energy E=F+TS    =     -53.70201273 Ry

     The total energy is F=E-TS. E is the sum of the following terms:
     one-electron contribution =    -563.49635039 Ry
     hartree contribution      =     285.80632938 Ry
     xc contribution           =     -17.38443064 Ry
     ewald contribution        =     241.37243893 Ry

     convergence has been achieved in  11 iterations


     -----------------------------------------------
     Non-local corr. energy    =       0.20394484 Ry
     -----------------------------------------------


     Forces acting on atoms (cartesian axes, Ry/au):

     atom    1 type  1   force =     0.00000000    0.00000000    0.00029184
     atom    2 type  2   force =     0.00000000    0.00000000   -0.00036760
     atom    3 type  1   force =     0.00000000   -0.00000000    0.00001957
     atom    4 type  2   force =     0.00000000    0.00000000    0.00005619
     The non-local contrib.  to forces
     atom    1 type  1   force =     0.00000000    0.00000000   -0.00067546
     atom    2 type  2   force =     0.00000000    0.00000000   -0.00172090
     atom    3 type  1   force =     0.00000000    0.00000000    0.00062624
     atom    4 type  2   force =     0.00000000    0.00000000    0.00010614
     The ionic contribution  to forces
     atom    1 type  1   force =     0.00000773   -0.00000446  -10.30514544
     atom    2 type  2   force =    -0.00000773    0.00000446  -17.17721479
     atom    3 type  1   force =     0.00000773   -0.00000446   10.29922158
     atom    4 type  2   force =    -0.00000773    0.00000446   17.18313865
     The local contribution  to forces
     atom    1 type  1   force =     0.00000000    0.00000000   10.30609664
     atom    2 type  2   force =    -0.00003348    0.00001933   17.17852041
     atom    3 type  1   force =    -0.00000000    0.00000000  -10.29983015
     atom    4 type  2   force =    -0.00003348    0.00001933  -17.18319116
     The core correction contribution to forces
     atom    1 type  1   force =     0.00000000   -0.00000000    0.00000561
     atom    2 type  2   force =     0.00000139   -0.00000080    0.00002317
     atom    3 type  1   force =     0.00000000   -0.00000000    0.00000802
     atom    4 type  2   force =     0.00000139   -0.00000080    0.00001788
     The Hubbard contrib.    to forces
     atom    1 type  1   force =     0.00000000    0.00000000    0.00000000
     atom    2 type  2   force =     0.00000000    0.00000000    0.00000000
     atom    3 type  1   force =     0.00000000    0.00000000    0.00000000
     atom    4 type  2   force =     0.00000000    0.00000000    0.00000000
     The SCF correction term to forces
     atom    1 type  1   force =     0.00000000   -0.00000000    0.00000000
     atom    2 type  2   force =     0.00000000   -0.00000000    0.00000000
     atom    3 type  1   force =     0.00000000   -0.00000000   -0.00000627
     atom    4 type  2   force =     0.00000000   -0.00000000   -0.00001546

     Total force =     0.000060     Total SCF correction =     0.000017
     SCF correction compared to forces is large: reduce conv_thr to get better values


     Computing stress (Cartesian axis) and pressure



     -----------------------------------------------
     Non-local corr. energy    =       0.20394484 Ry
     -----------------------------------------------

          total   stress  (Ry/bohr**3)                   (kbar)     P=        3.53
   0.00003565   0.00000000   0.00000000            5.24        0.00        0.00
   0.00000000   0.00003565  -0.00000000            0.00        5.24       -0.00
   0.00000000   0.00000000   0.00000063            0.00        0.00        0.09

     kinetic stress (kbar)   4565.28      0.00      0.00
                                0.00   4565.28     -0.00
                                0.00     -0.00   4965.98

     local   stress (kbar)-108957.65      0.00      0.00
                                0.00-108957.65     -0.00
                                0.00     -0.00 109602.72

     nonloc. stress (kbar)   -753.64      0.00      0.00
                                0.00   -753.64      0.00
                                0.00      0.00   -727.31

     hartree stress (kbar)  53084.18     -0.00     -0.00
                               -0.00  53084.18      0.00
                               -0.00      0.00 -52294.07

     exc-cor stress (kbar)   -458.52     -0.00     -0.00
                               -0.00   -458.52      0.00
                               -0.00      0.00   -504.02

     corecor stress (kbar)   -512.18      0.00      0.00
                                0.00   -512.18     -0.00
                                0.00     -0.00   -500.99

     ewald   stress (kbar)  53033.70     -0.01     -0.00
                               -0.01  53033.69      0.00
                               -0.00      0.00 -60568.86

     hubbard stress (kbar)      0.00      0.00      0.00
                                0.00      0.00      0.00
                                0.00      0.00      0.00

     DFT-D   stress (kbar)      0.00      0.00      0.00
                                0.00      0.00      0.00
                                0.00      0.00      0.00

     XDM     stress (kbar)      0.00      0.00      0.00
                                0.00      0.00      0.00
                                0.00      0.00      0.00

     dft-nl  stress (kbar)      4.08      0.00      0.00
                                0.00      4.08     -0.00
                                0.00     -0.00     26.63

     TS-vdW  stress (kbar)      0.00      0.00      0.00
                                0.00      0.00      0.00
                                0.00      0.00      0.00

     MDB     stress (kbar)      0.00      0.00      0.00
                                0.00      0.00      0.00
                                0.00      0.00      0.00

     3D-RISM stress (kbar)      0.00      0.00      0.00
                                0.00      0.00      0.00
                                0.00      0.00      0.00


     Writing all to output data dir ./tmp/BN2L_AA_PBE_vdW.save/

     init_run     :     12.52s CPU     12.61s WALL (       2 calls)
     electrons    :    229.50s CPU    255.04s WALL (      11 calls)
     update_pot   :     14.77s CPU     15.04s WALL (       9 calls)
     forces       :     11.49s CPU     11.79s WALL (      11 calls)
     stress       :     31.19s CPU     33.61s WALL (      11 calls)

     Called by init_run:
     wfcinit      :      0.86s CPU      0.86s WALL (       2 calls)
     wfcinit:atom :      0.02s CPU      0.02s WALL (      38 calls)
     wfcinit:wfcr :      0.76s CPU      0.76s WALL (      38 calls)
     potinit      :      9.23s CPU      9.30s WALL (       2 calls)
     hinit0       :      1.94s CPU      1.95s WALL (       2 calls)

     Called by electrons:
     c_bands      :    185.60s CPU    176.99s WALL (     137 calls)
     sum_band     :     19.71s CPU     20.26s WALL (     137 calls)
     v_of_rho     :     32.71s CPU     65.99s WALL (     148 calls)
     v_h          :      0.30s CPU      0.30s WALL (     148 calls)
     v_xc         :     36.05s CPU     69.76s WALL (     170 calls)
     mix_rho      :      1.09s CPU      1.54s WALL (     137 calls)
     vdW_kernel   :      8.17s CPU      8.19s WALL (       1 calls)

     Called by c_bands:
     init_us_2    :      3.72s CPU      3.77s WALL (    5662 calls)
     init_us_2:cp :      3.70s CPU      3.75s WALL (    5662 calls)
     cegterg      :    180.00s CPU    171.15s WALL (    2603 calls)

     Called by sum_band:
     sum_band:wei :      0.01s CPU      0.01s WALL (     137 calls)
     sum_band:loo :     19.13s CPU     19.65s WALL (     137 calls)
     sum_band:buf :      0.69s CPU      0.70s WALL (    2603 calls)
     sum_band:ini :      1.80s CPU      1.83s WALL (    2603 calls)

     Called by *egterg:
     cdiaghg      :      3.39s CPU      3.46s WALL (   17185 calls)
     cegterg:over :     10.98s CPU     11.33s WALL (   14753 calls)
     cegterg:upda :      9.22s CPU      7.60s WALL (   14753 calls)
     cegterg:last :     11.41s CPU      7.54s WALL (    7270 calls)
     h_psi        :    139.90s CPU    135.45s WALL (   17394 calls)
     g_psi        :      0.98s CPU      1.22s WALL (   14753 calls)

     Called by h_psi:
     h_psi:calbec :     14.54s CPU     12.61s WALL (   17394 calls)
     vloc_psi     :    108.48s CPU    111.15s WALL (   17394 calls)
     add_vuspsi   :     15.52s CPU     10.22s WALL (   17394 calls)

     General routines
     calbec       :     15.60s CPU     13.66s WALL (   18439 calls)
     fft          :     11.67s CPU     42.27s WALL (   10737 calls)
     ffts         :      0.14s CPU      0.14s WALL (     137 calls)
     fftw         :    105.18s CPU    107.54s WALL (  237756 calls)

     Parallel routines

     PWSCF        :   4m59.66s CPU   5m28.37s WALL


   This run was terminated on:  17:17:41  12Apr2024            

=------------------------------------------------------------------------------=
   JOB DONE.
=------------------------------------------------------------------------------=
