
     Program PWSCF v.7.2 starts on 17Apr2024 at 16:33: 6 

     This program is part of the open-source Quantum ESPRESSO suite
     for quantum simulation of materials; please cite
         "P. Giannozzi et al., J. Phys.:Condens. Matter 21 395502 (2009);
         "P. Giannozzi et al., J. Phys.:Condens. Matter 29 465901 (2017);
         "P. Giannozzi et al., J. Chem. Phys. 152 154105 (2020);
          URL http://www.quantum-espresso.org", 
     in publications or presentations arising from this work. More details at
     http://www.quantum-espresso.org/quote

     Parallel version (MPI & OpenMP), running on       8 processor cores
     Number of MPI processes:                 8
     Threads/MPI process:                     1

     MPI processes distributed on     1 nodes
     0 MiB available memory on the printing compute node when the environment starts

     Waiting for input...
     Reading input from standard input

     Current dimensions of program PWSCF are:
     Max number of different atomic species (ntypx) = 10
     Max number of k-points (npk) =  40000
     Max angular momentum in pseudopotentials (lmaxx) =  4

     IMPORTANT: XC functional enforced from input :
     Exchange-correlation= VDW-DF2-B86R
                           (   1   4  26   0   2   0   0)
     Any further DFT definition will be discarded
     Please, verify this is what you really want


     R & G space division:  proc/nbgrp/npool/nimage =       8
     Subspace diagonalization in iterative solution of the eigenvalue problem:
     a serial algorithm will be used


     Parallelization info
     --------------------
     sticks:   dense  smooth     PW     G-vecs:    dense   smooth      PW
     Min          93      93     26                16471    16471    2576
     Max          94      94     27                16510    16510    2601
     Sum         745     745    211               131845   131845   20681

     Using Slab Decomposition



     bravais-lattice index     =            4
     lattice parameter (alat)  =       4.7476  a.u.
     unit-cell volume          =     741.3977 (a.u.)^3
     number of atoms/cell      =            4
     number of atomic types    =            2
     number of electrons       =        16.00
     number of Kohn-Sham states=           12
     kinetic-energy cutoff     =     120.0000  Ry
     charge density cutoff     =     480.0000  Ry
     scf convergence threshold =      1.0E-06
     mixing beta               =       0.7000
     number of iterations used =            8  plain     mixing
     energy convergence thresh.=      1.0E-04
     force convergence thresh. =      1.0E-03
     press convergence thresh. =      5.0E-01
     Exchange-correlation= VDW-DF2-B86R
                           (   1   4  26   0   2   0   0)
     nstep                     =           50


     celldm(1)=   4.747630  celldm(2)=   0.000000  celldm(3)=   8.000000
     celldm(4)=   0.000000  celldm(5)=   0.000000  celldm(6)=   0.000000

     crystal axes: (cart. coord. in units of alat)
               a(1) = (   1.000000   0.000000   0.000000 )  
               a(2) = (  -0.500000   0.866025   0.000000 )  
               a(3) = (   0.000000   0.000000   8.000000 )  

     reciprocal axes: (cart. coord. in units 2 pi/alat)
               b(1) = (  1.000000  0.577350 -0.000000 )  
               b(2) = (  0.000000  1.154701  0.000000 )  
               b(3) = (  0.000000 -0.000000  0.125000 )  


     PseudoPot. # 1 for B  read from file:
     ../../../../Pseudo/PBE/B.upf
     MD5 check sum: 72f82fc31bc892420d0cab7e25c88ab8
     Pseudo is Norm-conserving + core correction, Zval =  3.0
     Generated using ONCVPSP code by D. R. Hamann
     Using radial grid of 1534 points,  4 beta functions with: 
                l(1) =   0
                l(2) =   0
                l(3) =   1
                l(4) =   1

     PseudoPot. # 2 for N  read from file:
     ../../../../Pseudo/PBE/N.upf
     MD5 check sum: d34365f73bb0e2ee98afc20ec3e87676
     Pseudo is Norm-conserving + core correction, Zval =  5.0
     Generated using ONCVPSP code by D. R. Hamann
     Using radial grid of 1058 points,  4 beta functions with: 
                l(1) =   0
                l(2) =   0
                l(3) =   1
                l(4) =   1

     atomic species   valence    mass     pseudopotential
        B              3.00    10.00000     B ( 1.00)
        N              5.00    14.01100     N ( 1.00)

      6 Sym. Ops. (no inversion) found


                                    s                        frac. trans.

      isym =  1     identity                                     

 cryst.   s( 1) = (     1          0          0      )
                  (     0          1          0      )
                  (     0          0          1      )

 cart.    s( 1) = (  1.0000000  0.0000000  0.0000000 )
                  (  0.0000000  1.0000000  0.0000000 )
                  (  0.0000000  0.0000000  1.0000000 )


      isym =  2     120 deg rotation - cryst. axis [0,0,1]       

 cryst.   s( 2) = (     0          1          0      )
                  (    -1         -1          0      )
                  (     0          0          1      )

 cart.    s( 2) = ( -0.5000000 -0.8660254  0.0000000 )
                  (  0.8660254 -0.5000000  0.0000000 )
                  (  0.0000000  0.0000000  1.0000000 )


      isym =  3     120 deg rotation - cryst. axis [0,0,-1]      

 cryst.   s( 3) = (    -1         -1          0      )
                  (     1          0          0      )
                  (     0          0          1      )

 cart.    s( 3) = ( -0.5000000  0.8660254  0.0000000 )
                  ( -0.8660254 -0.5000000  0.0000000 )
                  (  0.0000000  0.0000000  1.0000000 )


      isym =  4     inv. 180 deg rotation - cart. axis [1,0,0]   

 cryst.   s( 4) = (    -1          0          0      )
                  (     1          1          0      )
                  (     0          0          1      )

 cart.    s( 4) = ( -1.0000000  0.0000000  0.0000000 )
                  (  0.0000000  1.0000000  0.0000000 )
                  (  0.0000000  0.0000000  1.0000000 )


      isym =  5     inv. 180 deg rotation - cryst. axis [0,1,0]  

 cryst.   s( 5) = (     1          1          0      )
                  (     0         -1          0      )
                  (     0          0          1      )

 cart.    s( 5) = (  0.5000000  0.8660254  0.0000000 )
                  (  0.8660254 -0.5000000  0.0000000 )
                  (  0.0000000  0.0000000  1.0000000 )


      isym =  6     inv. 180 deg rotation - cryst. axis [1,1,0]  

 cryst.   s( 6) = (     0         -1          0      )
                  (    -1          0          0      )
                  (     0          0          1      )

 cart.    s( 6) = (  0.5000000 -0.8660254  0.0000000 )
                  ( -0.8660254 -0.5000000  0.0000000 )
                  (  0.0000000  0.0000000  1.0000000 )


     point group C_3v (3m)  
     there are  3 classes
     the character table:

       E     2C3   3s_v 
A_1    1.00  1.00  1.00
A_2    1.00  1.00 -1.00
E      2.00 -1.00  0.00

     the symmetry operations in each class and the name of the first element:

     E        1
          identity                                               
     2C3      2    3
          120 deg rotation - cryst. axis [0,0,1]                 
     3s_v     4    5    6
          inv. 180 deg rotation - cart. axis [1,0,0]             

   Cartesian axes

     site n.     atom                  positions (alat units)
         1           B   tau(   1) = (   0.0000000   0.0000000   0.0000000  )
         2           N   tau(   2) = (   0.5000005   0.2886748   0.0000000  )
         3           B   tau(   3) = (   0.0000000   0.0000000   1.4181600  )
         4           N   tau(   4) = (   0.5000005   0.2886748   1.4181600  )

   Crystallographic axes

     site n.     atom                  positions (cryst. coord.)
         1           B   tau(   1) = (  0.0000000  0.0000000  0.0000000  )
         2           N   tau(   2) = (  0.6666670  0.3333330  0.0000000  )
         3           B   tau(   3) = (  0.0000000  0.0000000  0.1772700  )
         4           N   tau(   4) = (  0.6666670  0.3333330  0.1772700  )

     number of k points=    19  Marzari-Vanderbilt smearing, width (Ry)=  0.0050
                       cart. coord. in units 2pi/alat
        k(    1) = (   0.0000000   0.0000000   0.0000000), wk =   0.0138889
        k(    2) = (   0.0000000   0.0962250   0.0000000), wk =   0.0833333
        k(    3) = (   0.0000000   0.1924501   0.0000000), wk =   0.0833333
        k(    4) = (   0.0000000   0.2886751   0.0000000), wk =   0.0833333
        k(    5) = (   0.0000000   0.3849002   0.0000000), wk =   0.0833333
        k(    6) = (   0.0000000   0.4811252   0.0000000), wk =   0.0833333
        k(    7) = (   0.0000000  -0.5773503   0.0000000), wk =   0.0416667
        k(    8) = (   0.0833333   0.1443376   0.0000000), wk =   0.0833333
        k(    9) = (   0.0833333   0.2405626   0.0000000), wk =   0.1666667
        k(   10) = (   0.0833333   0.3367877   0.0000000), wk =   0.1666667
        k(   11) = (   0.0833333   0.4330127   0.0000000), wk =   0.1666667
        k(   12) = (   0.0833333   0.5292377   0.0000000), wk =   0.1666667
        k(   13) = (   0.1666667   0.2886751   0.0000000), wk =   0.0833333
        k(   14) = (   0.1666667   0.3849002   0.0000000), wk =   0.1666667
        k(   15) = (   0.1666667   0.4811252   0.0000000), wk =   0.1666667
        k(   16) = (   0.1666667   0.5773503   0.0000000), wk =   0.0833333
        k(   17) = (   0.2500000   0.4330127   0.0000000), wk =   0.0833333
        k(   18) = (   0.2500000   0.5292377   0.0000000), wk =   0.1666667
        k(   19) = (   0.3333333   0.5773503   0.0000000), wk =   0.0277778

                       cryst. coord.
        k(    1) = (   0.0000000   0.0000000   0.0000000), wk =   0.0138889
        k(    2) = (   0.0000000   0.0833333   0.0000000), wk =   0.0833333
        k(    3) = (   0.0000000   0.1666667   0.0000000), wk =   0.0833333
        k(    4) = (   0.0000000   0.2500000   0.0000000), wk =   0.0833333
        k(    5) = (   0.0000000   0.3333333   0.0000000), wk =   0.0833333
        k(    6) = (   0.0000000   0.4166667   0.0000000), wk =   0.0833333
        k(    7) = (   0.0000000  -0.5000000   0.0000000), wk =   0.0416667
        k(    8) = (   0.0833333   0.0833333   0.0000000), wk =   0.0833333
        k(    9) = (   0.0833333   0.1666667   0.0000000), wk =   0.1666667
        k(   10) = (   0.0833333   0.2500000   0.0000000), wk =   0.1666667
        k(   11) = (   0.0833333   0.3333333   0.0000000), wk =   0.1666667
        k(   12) = (   0.0833333   0.4166667   0.0000000), wk =   0.1666667
        k(   13) = (   0.1666667   0.1666667   0.0000000), wk =   0.0833333
        k(   14) = (   0.1666667   0.2500000   0.0000000), wk =   0.1666667
        k(   15) = (   0.1666667   0.3333333   0.0000000), wk =   0.1666667
        k(   16) = (   0.1666667   0.4166667   0.0000000), wk =   0.0833333
        k(   17) = (   0.2500000   0.2500000   0.0000000), wk =   0.0833333
        k(   18) = (   0.2500000   0.3333333   0.0000000), wk =   0.1666667
        k(   19) = (   0.3333333   0.3333333   0.0000000), wk =   0.0277778

     Dense  grid:   131845 G-vectors     FFT dimensions: (  36,  36, 270)

     Dynamical RAM for                 wfc:       0.38 MB

     Dynamical RAM for     wfc (w. buffer):       7.53 MB

     Dynamical RAM for           str. fact:       0.50 MB

     Dynamical RAM for           local pot:       0.00 MB

     Dynamical RAM for          nlocal pot:       1.00 MB

     Dynamical RAM for                qrad:       2.01 MB

     Dynamical RAM for          rho,v,vnew:       1.76 MB

     Dynamical RAM for               rhoin:       0.59 MB

     Dynamical RAM for            rho*nmix:       4.02 MB

     Dynamical RAM for           G-vectors:       1.07 MB

     Dynamical RAM for          h,s,v(r/c):       0.03 MB

     Dynamical RAM for          <psi|beta>:       0.01 MB

     Dynamical RAM for                 psi:       0.75 MB

     Dynamical RAM for                hpsi:       0.75 MB

     Dynamical RAM for      wfcinit/wfcrot:       1.01 MB

     Estimated static dynamical RAM per process >      16.90 MB

     Estimated max dynamical RAM per process >      22.46 MB

     Estimated total dynamical RAM >     179.71 MB

     Initial potential from superposition of free atoms

     starting charge      15.9995, renormalised to      16.0000

     negative rho (up, down):  3.828E-06 0.000E+00


     %%%%%%%%%%%%%%%%%%%%%%%%%%%%%%%%%%%%%%%%%%%%%%%%%%%%%%%%%%%%%%%%%%%%%%%%
     %                                                                      %
     % You are using vdW-DF, which was implemented by the Thonhauser group. %
     % Please cite the following two papers that made this development      %
     % possible and the two reviews that describe the various versions:     %
     %                                                                      %
     %   T. Thonhauser et al., PRL 115, 136402 (2015).                      %
     %   T. Thonhauser et al., PRB 76, 125112 (2007).                       %
     %   K. Berland et al., Rep. Prog. Phys. 78, 066501 (2015).             %
     %   D.C. Langreth et al., J. Phys.: Condens. Matter 21, 084203 (2009). %
     %                                                                      %
     % If you are calculating stress with vdW-DF, please also cite:         %
     %                                                                      %
     %   R. Sabatini et al., J. Phys.: Condens. Matter 24, 424209 (2012).   %
     %                                                                      %
     %%%%%%%%%%%%%%%%%%%%%%%%%%%%%%%%%%%%%%%%%%%%%%%%%%%%%%%%%%%%%%%%%%%%%%%%

     %%%%%%%%%%%%%%%%%%%%%%%%%%%%%%%%%%%%%%%%%%%%%%%%%%%%%%%%%%%%%%%%%%%%%%%%
     %                                                                      %
     %  vdW-DF NEWS:                                                        %
     %                                                                      %
     %  * vdW-DF3 is now available. DOI: 10.1021/acs.jctc.0c00471           %
     %    use with input_dft = 'vdW-DF3-opt1' or 'vdW-DF3-opt2'             %
     %                                                                      %
     %  * Unscreened and range-separated hybrid vdW-DF-cx functionals       %
     %    DOI: 10.1063/1.4986522 and 10.1088/1361-648X/ac2ad2               %
     %    use with input_dft = 'vdW-DF-cx0'    and 'vdW-DF-ahcx'            %
     %  * Unscreened and range-separated hybrid vdW-DF2-b86r functionals    %
     %    DOI: 10.1063/1.4986522 and DOI: 10.1103/PhysRevX.12.041003        %
     %    use with input_dft = 'vdW-DF2-br0' and 'vdW-DF2-ahbr'             %
     %                                                                      %
     %%%%%%%%%%%%%%%%%%%%%%%%%%%%%%%%%%%%%%%%%%%%%%%%%%%%%%%%%%%%%%%%%%%%%%%%


     Carrying out vdW-DF run using the following parameters:
     Nqs    =  20  Npoints =  1024  r_max =  100.000
     q_mesh =  0.00001000  0.04494208  0.09755937  0.15916263
               0.23128650  0.31572767  0.41458969  0.53033537
               0.66584808  0.82450364  1.01025438  1.22772762
               1.48234092  1.78043706  2.12944203  2.53805004
               3.01644009  3.57652955  4.23227104  5.00000000


     -----------------------------------------------
     Non-local corr. energy    =       0.17832749 Ry
     -----------------------------------------------

     Starting wfcs are   16 randomized atomic wfcs

     total cpu time spent up to now is       10.9 secs

     Self-consistent Calculation

     iteration #  1     ecut=   120.00 Ry     beta= 0.70
     Davidson diagonalization with overlap

---- Real-time Memory Report at c_bands before calling an iterative solver
             0 MiB given to the printing process from OS
             0 MiB allocation reported by mallinfo(arena+hblkhd)
             0 MiB available memory on the node where the printing process lives
------------------
     ethr =  1.00E-02,  avg # of iterations =  4.2


     -----------------------------------------------
     Non-local corr. energy    =       0.20813518 Ry
     -----------------------------------------------


     total cpu time spent up to now is       12.5 secs

     total energy              =     -53.44096542 Ry
     estimated scf accuracy    <       0.76882206 Ry

     iteration #  2     ecut=   120.00 Ry     beta= 0.70
     Davidson diagonalization with overlap

---- Real-time Memory Report at c_bands before calling an iterative solver
             0 MiB given to the printing process from OS
             0 MiB allocation reported by mallinfo(arena+hblkhd)
             0 MiB available memory on the node where the printing process lives
------------------
     ethr =  4.81E-03,  avg # of iterations =  3.8


     -----------------------------------------------
     Non-local corr. energy    =       0.20199603 Ry
     -----------------------------------------------


     total cpu time spent up to now is       14.0 secs

     total energy              =     -53.64245161 Ry
     estimated scf accuracy    <       0.33849140 Ry

     iteration #  3     ecut=   120.00 Ry     beta= 0.70
     Davidson diagonalization with overlap

---- Real-time Memory Report at c_bands before calling an iterative solver
             0 MiB given to the printing process from OS
             0 MiB allocation reported by mallinfo(arena+hblkhd)
             0 MiB available memory on the node where the printing process lives
------------------
     ethr =  2.12E-03,  avg # of iterations =  1.8


     -----------------------------------------------
     Non-local corr. energy    =       0.20400058 Ry
     -----------------------------------------------


     total cpu time spent up to now is       15.0 secs

     total energy              =     -53.69662040 Ry
     estimated scf accuracy    <       0.00559448 Ry

     iteration #  4     ecut=   120.00 Ry     beta= 0.70
     Davidson diagonalization with overlap

---- Real-time Memory Report at c_bands before calling an iterative solver
             0 MiB given to the printing process from OS
             0 MiB allocation reported by mallinfo(arena+hblkhd)
             0 MiB available memory on the node where the printing process lives
------------------
     ethr =  3.50E-05,  avg # of iterations =  9.2


     -----------------------------------------------
     Non-local corr. energy    =       0.20409043 Ry
     -----------------------------------------------


     total cpu time spent up to now is       17.3 secs

     total energy              =     -53.70158703 Ry
     estimated scf accuracy    <       0.00550057 Ry

     iteration #  5     ecut=   120.00 Ry     beta= 0.70
     Davidson diagonalization with overlap

---- Real-time Memory Report at c_bands before calling an iterative solver
             0 MiB given to the printing process from OS
             0 MiB allocation reported by mallinfo(arena+hblkhd)
             0 MiB available memory on the node where the printing process lives
------------------
     ethr =  3.44E-05,  avg # of iterations =  2.3


     -----------------------------------------------
     Non-local corr. energy    =       0.20405740 Ry
     -----------------------------------------------


     total cpu time spent up to now is       18.4 secs

     total energy              =     -53.70176654 Ry
     estimated scf accuracy    <       0.00089389 Ry

     iteration #  6     ecut=   120.00 Ry     beta= 0.70
     Davidson diagonalization with overlap

---- Real-time Memory Report at c_bands before calling an iterative solver
             0 MiB given to the printing process from OS
             0 MiB allocation reported by mallinfo(arena+hblkhd)
             0 MiB available memory on the node where the printing process lives
------------------
     ethr =  5.59E-06,  avg # of iterations =  4.8

     negative rho (up, down):  3.709E-07 0.000E+00


     -----------------------------------------------
     Non-local corr. energy    =       0.20408842 Ry
     -----------------------------------------------


     total cpu time spent up to now is       19.9 secs

     total energy              =     -53.70206394 Ry
     estimated scf accuracy    <       0.00002132 Ry

     iteration #  7     ecut=   120.00 Ry     beta= 0.70
     Davidson diagonalization with overlap

---- Real-time Memory Report at c_bands before calling an iterative solver
             0 MiB given to the printing process from OS
             0 MiB allocation reported by mallinfo(arena+hblkhd)
             0 MiB available memory on the node where the printing process lives
------------------
     c_bands:  1 eigenvalues not converged
     ethr =  1.33E-07,  avg # of iterations =  6.8


     -----------------------------------------------
     Non-local corr. energy    =       0.20410350 Ry
     -----------------------------------------------


     total cpu time spent up to now is       21.8 secs

     total energy              =     -53.70206471 Ry
     estimated scf accuracy    <       0.00003073 Ry

     iteration #  8     ecut=   120.00 Ry     beta= 0.70
     Davidson diagonalization with overlap

---- Real-time Memory Report at c_bands before calling an iterative solver
             0 MiB given to the printing process from OS
             0 MiB allocation reported by mallinfo(arena+hblkhd)
             0 MiB available memory on the node where the printing process lives
------------------
     ethr =  1.33E-07,  avg # of iterations =  2.0


     -----------------------------------------------
     Non-local corr. energy    =       0.20410559 Ry
     -----------------------------------------------


     total cpu time spent up to now is       23.0 secs

     total energy              =     -53.70206723 Ry
     estimated scf accuracy    <       0.00000157 Ry

     iteration #  9     ecut=   120.00 Ry     beta= 0.70
     Davidson diagonalization with overlap

---- Real-time Memory Report at c_bands before calling an iterative solver
             0 MiB given to the printing process from OS
             0 MiB allocation reported by mallinfo(arena+hblkhd)
             0 MiB available memory on the node where the printing process lives
------------------
     ethr =  9.83E-09,  avg # of iterations =  3.5


     -----------------------------------------------
     Non-local corr. energy    =       0.20411280 Ry
     -----------------------------------------------


     total cpu time spent up to now is       24.5 secs

     End of self-consistent calculation

          k = 0.0000 0.0000 0.0000 ( 16459 PWs)   bands (ev):

   -20.1029 -20.0148  -8.0840  -7.3094  -3.8691  -3.8690  -3.8591  -3.8590
     1.9507   2.5334   3.6523   4.5505

     occupation numbers 
     1.0000   1.0000   1.0000   1.0000   1.0000   1.0000   1.0000   1.0000
     0.0000   0.0000   0.0000   0.0000

          k = 0.0000 0.0962 0.0000 ( 16505 PWs)   bands (ev):

   -19.9699 -19.8832  -7.9022  -7.1348  -4.4252  -4.4049  -4.1238  -4.1129
     2.1834   2.7475   3.8723   4.7415

     occupation numbers 
     1.0000   1.0000   1.0000   1.0000   1.0000   1.0000   1.0000   1.0000
     0.0000   0.0000   0.0000   0.0000

          k = 0.0000 0.1925 0.0000 ( 16483 PWs)   bands (ev):

   -19.5783 -19.4958  -7.3649  -6.6213  -5.8236  -5.7859  -4.7453  -4.7325
     2.8423   3.3706   4.5107   5.2364

     occupation numbers 
     1.0000   1.0000   1.0000   1.0000   1.0000   1.0000   1.0000   1.0000
     0.0000   0.0000   0.0000   0.0000

          k = 0.0000 0.2887 0.0000 ( 16460 PWs)   bands (ev):

   -18.9553 -18.8799  -7.5999  -7.5477  -6.4928  -5.7926  -5.4674  -5.4527
     3.8796   4.3312   5.2308   5.7999

     occupation numbers 
     1.0000   1.0000   1.0000   1.0000   1.0000   1.0000   1.0000   1.0000
     0.0000   0.0000   0.0000   0.0000

          k = 0.0000 0.3849 0.0000 ( 16432 PWs)   bands (ev):

   -18.1699 -18.1044  -9.3620  -9.2981  -6.0886  -6.0726  -5.3732  -4.7421
     4.1808   4.7775   5.2324   6.3953

     occupation numbers 
     1.0000   1.0000   1.0000   1.0000   1.0000   1.0000   1.0000   1.0000
     0.0000   0.0000   0.0000   0.0000

          k = 0.0000 0.4811 0.0000 ( 16454 PWs)   bands (ev):

   -17.3983 -17.3448 -10.7739 -10.6969  -6.4966  -6.4798  -4.2066  -3.6819
     2.6021   3.4939   6.5584   7.3973

     occupation numbers 
     1.0000   1.0000   1.0000   1.0000   1.0000   1.0000   1.0000   1.0000
     0.0000   0.0000   0.0000   0.0000

          k = 0.0000-0.5774 0.0000 ( 16482 PWs)   bands (ev):

   -17.0352 -16.9886 -11.3586 -11.2741  -6.6378  -6.6208  -3.6084  -3.1630
     1.8230   2.8084   6.9990   7.5575

     occupation numbers 
     1.0000   1.0000   1.0000   1.0000   1.0000   1.0000   1.0000   1.0000
     0.0000   0.0000   0.0000   0.0000

          k = 0.0833 0.1443 0.0000 ( 16509 PWs)   bands (ev):

   -19.7075 -19.6236  -7.5423  -6.7902  -5.3356  -5.3037  -4.6288  -4.6149
     2.6300   3.1669   4.3035   5.0894

     occupation numbers 
     1.0000   1.0000   1.0000   1.0000   1.0000   1.0000   1.0000   1.0000
     0.0000   0.0000   0.0000   0.0000

          k = 0.0833 0.2406 0.0000 ( 16455 PWs)   bands (ev):

   -19.1989 -19.1206  -6.8841  -6.7721  -6.7649  -6.1133  -5.4117  -5.3933
     3.4856   3.9701   5.0868   5.5904

     occupation numbers 
     1.0000   1.0000   1.0000   1.0000   1.0000   1.0000   1.0000   1.0000
     0.0000   0.0000   0.0000   0.0000

          k = 0.0833 0.3368 0.0000 ( 16451 PWs)   bands (ev):

   -18.4882 -18.4185  -8.5163  -8.4599  -6.1544  -6.1322  -5.8329  -5.1703
     4.7094   4.8433   4.8947   6.5478

     occupation numbers 
     1.0000   1.0000   1.0000   1.0000   1.0000   1.0000   1.0000   1.0000
     0.0000   0.0000   0.0000   0.0000

          k = 0.0833 0.4330 0.0000 ( 16446 PWs)   bands (ev):

   -17.6860 -17.6274 -10.0920 -10.0230  -6.7017  -6.6783  -4.6573  -4.0831
     3.3489   4.1382   6.2001   7.1360

     occupation numbers 
     1.0000   1.0000   1.0000   1.0000   1.0000   1.0000   1.0000   1.0000
     0.0000   0.0000   0.0000   0.0000

          k = 0.0833 0.5292 0.0000 ( 16464 PWs)   bands (ev):

   -17.0666 -17.0188 -11.1278 -11.0474  -6.9891  -6.9649  -3.6733  -3.2111
     2.0639   3.0004   7.3599   8.0737

     occupation numbers 
     1.0000   1.0000   1.0000   1.0000   1.0000   1.0000   1.0000   1.0000
     0.0000   0.0000   0.0000   0.0000

          k = 0.1667 0.2887 0.0000 ( 16470 PWs)   bands (ev):

   -18.5985 -18.5273  -8.0169  -7.9659  -6.4233  -6.3940  -5.9904  -5.3177
     4.5429   4.8263   5.0872   6.3623

     occupation numbers 
     1.0000   1.0000   1.0000   1.0000   1.0000   1.0000   1.0000   1.0000
     0.0000   0.0000   0.0000   0.0000

          k = 0.1667 0.3849 0.0000 ( 16424 PWs)   bands (ev):

   -17.8493 -17.7878  -9.3577  -9.2986  -7.2844  -7.2482  -4.9083  -4.3085
     3.9342   4.6071   5.9680   6.8735

     occupation numbers 
     1.0000   1.0000   1.0000   1.0000   1.0000   1.0000   1.0000   1.0000
     0.0000   0.0000   0.0000   0.0000

          k = 0.1667 0.4811 0.0000 ( 16461 PWs)   bands (ev):

   -17.1270 -17.0768 -10.5366 -10.4664  -7.8032  -7.7635  -3.7942  -3.3026
     2.5821   3.4077   7.6291   8.4682

     occupation numbers 
     1.0000   1.0000   1.0000   1.0000   1.0000   1.0000   1.0000   1.0000
     0.0000   0.0000   0.0000   0.0000

          k = 0.1667 0.5774 0.0000 ( 16464 PWs)   bands (ev):

   -16.7946 -16.7506 -11.0387 -10.9621  -7.9741  -7.9333  -3.2314  -2.8172
     1.9114   2.8172   8.6512   9.5028

     occupation numbers 
     1.0000   1.0000   1.0000   1.0000   1.0000   1.0000   1.0000   1.0000
     0.0000   0.0000   0.0000   0.0000

          k = 0.2500 0.4330 0.0000 ( 16426 PWs)   bands (ev):

   -17.1560 -17.1047 -10.0773 -10.0162  -8.3662  -8.3150  -3.8508  -3.3462
     2.8678   3.6267   7.5760   8.3257

     occupation numbers 
     1.0000   1.0000   1.0000   1.0000   1.0000   1.0000   1.0000   1.0000
     0.0000   0.0000   0.0000   0.0000

          k = 0.2500 0.5292 0.0000 ( 16465 PWs)   bands (ev):

   -16.6522 -16.6096 -10.5854 -10.5210  -8.9743  -8.9143  -3.0065  -2.6088
     2.0207   2.8518   9.2370   9.3577

     occupation numbers 
     1.0000   1.0000   1.0000   1.0000   1.0000   1.0000   1.0000   1.0000
     0.0000   0.0000   0.0000   0.0000

          k = 0.3333 0.5774 0.0000 ( 16482 PWs)   bands (ev):

   -16.4606 -16.4211 -10.3605 -10.3134  -9.6629  -9.5801  -2.6636  -2.3145
     1.8006   2.6347   8.8955  10.1951

     occupation numbers 
     1.0000   1.0000   1.0000   1.0000   1.0000   1.0000   1.0000   1.0000
     0.0000   0.0000   0.0000   0.0000

     the Fermi energy is    -0.9966 ev

!    total energy              =     -53.70206809 Ry
     estimated scf accuracy    <       0.00000028 Ry
     smearing contrib. (-TS)   =       0.00000000 Ry
     internal energy E=F+TS    =     -53.70206809 Ry

     The total energy is F=E-TS. E is the sum of the following terms:
     one-electron contribution =    -508.08696370 Ry
     hartree contribution      =     258.20386018 Ry
     xc contribution           =     -17.37193650 Ry
     ewald contribution        =     213.55297193 Ry

     convergence has been achieved in   9 iterations


     -----------------------------------------------
     Non-local corr. energy    =       0.20411280 Ry
     -----------------------------------------------


     Forces acting on atoms (cartesian axes, Ry/au):

     atom    1 type  1   force =     0.00000000    0.00000000    0.00032629
     atom    2 type  2   force =     0.00000000   -0.00000000   -0.00035534
     atom    3 type  1   force =     0.00000000    0.00000000   -0.00031891
     atom    4 type  2   force =     0.00000000    0.00000000    0.00034797
     The non-local contrib.  to forces
     atom    1 type  1   force =     0.00000000    0.00000000   -0.00065674
     atom    2 type  2   force =     0.00000000    0.00000000   -0.00172061
     atom    3 type  1   force =     0.00000000   -0.00000000    0.00065879
     atom    4 type  2   force =     0.00000000    0.00000000    0.00167963
     The ionic contribution  to forces
     atom    1 type  1   force =     0.00000770   -0.00000445   -9.97274536
     atom    2 type  2   force =    -0.00000770    0.00000445  -16.62321249
     atom    3 type  1   force =     0.00000770   -0.00000445    9.97274536
     atom    4 type  2   force =    -0.00000770    0.00000445   16.62321249
     The local contribution  to forces
     atom    1 type  1   force =    -0.00000000    0.00000000    9.97368782
     atom    2 type  2   force =    -0.00003355    0.00001937   16.62448093
     atom    3 type  1   force =    -0.00000000    0.00000000   -9.97376606
     atom    4 type  2   force =    -0.00003355    0.00001937  -16.62461619
     The core correction contribution to forces
     atom    1 type  1   force =     0.00000000   -0.00000000    0.00000448
     atom    2 type  2   force =     0.00000139   -0.00000080    0.00002214
     atom    3 type  1   force =     0.00000000   -0.00000000   -0.00000516
     atom    4 type  2   force =     0.00000139   -0.00000080   -0.00002161
     The Hubbard contrib.    to forces
     atom    1 type  1   force =     0.00000000    0.00000000    0.00000000
     atom    2 type  2   force =     0.00000000    0.00000000    0.00000000
     atom    3 type  1   force =     0.00000000    0.00000000    0.00000000
     atom    4 type  2   force =     0.00000000    0.00000000    0.00000000
     The SCF correction term to forces
     atom    1 type  1   force =     0.00000000   -0.00000000    0.00000000
     atom    2 type  2   force =     0.00000000   -0.00000000    0.00000000
     atom    3 type  1   force =    -0.00000000    0.00000000    0.00004137
     atom    4 type  2   force =     0.00000000   -0.00000000    0.00008686

     Total force =     0.000472     Total SCF correction =     0.000096
     SCF correction compared to forces is large: reduce conv_thr to get better values


     Computing stress (Cartesian axis) and pressure



     -----------------------------------------------
     Non-local corr. energy    =       0.20411280 Ry
     -----------------------------------------------

          total   stress  (Ry/bohr**3)                   (kbar)     P=        0.05
  -0.00000015   0.00000000   0.00000000           -0.02        0.00        0.00
   0.00000000  -0.00000015   0.00000000            0.00       -0.02        0.00
   0.00000000   0.00000000   0.00000133            0.00        0.00        0.20

     kinetic stress (kbar)   4798.05      0.00      0.00
                                0.00   4798.05      0.00
                                0.00      0.00   5223.27

     local   stress (kbar)-103679.07      0.00     -0.00
                                0.00-103679.07      0.00
                               -0.00      0.00 104344.08

     nonloc. stress (kbar)   -791.20      0.00      0.00
                                0.00   -791.20      0.00
                                0.00      0.00   -764.56

     hartree stress (kbar)  50397.66     -0.00      0.00
                               -0.00  50397.66      0.00
                                0.00      0.00 -49563.58

     exc-cor stress (kbar)   -481.97     -0.00     -0.00
                               -0.00   -481.97      0.00
                               -0.00      0.00   -529.79

     corecor stress (kbar)   -538.94      0.00     -0.00
                                0.00   -538.94      0.00
                               -0.00      0.00   -527.27

     ewald   stress (kbar)  50291.14     -0.01      0.00
                               -0.01  50291.13     -0.00
                                0.00     -0.00 -58209.96

     hubbard stress (kbar)      0.00      0.00      0.00
                                0.00      0.00      0.00
                                0.00      0.00      0.00

     DFT-D   stress (kbar)      0.00      0.00      0.00
                                0.00      0.00      0.00
                                0.00      0.00      0.00

     XDM     stress (kbar)      0.00      0.00      0.00
                                0.00      0.00      0.00
                                0.00      0.00      0.00

     dft-nl  stress (kbar)      4.30      0.00     -0.00
                                0.00      4.30      0.00
                               -0.00      0.00     28.01

     TS-vdW  stress (kbar)      0.00      0.00      0.00
                                0.00      0.00      0.00
                                0.00      0.00      0.00

     MDB     stress (kbar)      0.00      0.00      0.00
                                0.00      0.00      0.00
                                0.00      0.00      0.00

     3D-RISM stress (kbar)      0.00      0.00      0.00
                                0.00      0.00      0.00
                                0.00      0.00      0.00


     BFGS Geometry Optimization
     Energy error            =      0.0E+00 Ry
     Gradient error          =      3.5E-04 Ry/Bohr
     Cell gradient error     =      2.0E-01 kbar

     bfgs converged in   1 scf cycles and   0 bfgs steps
     (criteria: energy <  1.0E-04 Ry, force <  1.0E-03 Ry/Bohr, cell <  5.0E-01 kbar)

     End of BFGS Geometry Optimization

     Final enthalpy           =     -53.7020680872 Ry
Begin final coordinates
     new unit-cell volume =    741.39767 a.u.^3 (   109.86380 Ang^3 )
     density =      0.72583 g/cm^3

CELL_PARAMETERS (alat=  4.74763000)
   1.000000000   0.000000000   0.000000000
  -0.500000000   0.866025404   0.000000000
   0.000000000   0.000000000   8.000000000

ATOMIC_POSITIONS (crystal)
B             0.0000000000        0.0000000000        0.0000000000    0   0   0
N             0.6666670000        0.3333330000        0.0000000000    0   0   0
B             0.0000000000        0.0000000000        0.1772700000
N             0.6666670000        0.3333330000        0.1772700000
End final coordinates



     Writing config-only to output data dir ./tmp/BN2L_AA_PBE_vdW.save/

     Final scf calculation at the relaxed structure.
     The G-vectors are recalculated for the final unit cell
     Results may differ from those at the preceding step.

     Parallelization info
     --------------------
     sticks:   dense  smooth     PW     G-vecs:    dense   smooth      PW
     Min          93      93     26                16471    16471    2576
     Max          94      94     27                16510    16510    2601
     Sum         745     745    211               131845   131845   20681

     Using Slab Decomposition



     bravais-lattice index     =            4
     lattice parameter (alat)  =       4.7476  a.u.
     unit-cell volume          =     741.3977 (a.u.)^3
     number of atoms/cell      =            4
     number of atomic types    =            2
     number of electrons       =        16.00
     number of Kohn-Sham states=           12
     kinetic-energy cutoff     =     120.0000  Ry
     charge density cutoff     =     480.0000  Ry
     scf convergence threshold =      1.0E-06
     mixing beta               =       0.7000
     number of iterations used =            8  plain     mixing
     press convergence thresh. =      5.0E-01
     Exchange-correlation= VDW-DF2-B86R
                           (   1   4  26   0   2   0   0)

     celldm(1)=   4.747630  celldm(2)=   0.000000  celldm(3)=   8.000000
     celldm(4)=   0.000000  celldm(5)=   0.000000  celldm(6)=   0.000000

     crystal axes: (cart. coord. in units of alat)
               a(1) = (   1.000000   0.000000   0.000000 )  
               a(2) = (  -0.500000   0.866025   0.000000 )  
               a(3) = (   0.000000   0.000000   8.000000 )  

     reciprocal axes: (cart. coord. in units 2 pi/alat)
               b(1) = (  1.000000  0.577350 -0.000000 )  
               b(2) = (  0.000000  1.154701  0.000000 )  
               b(3) = (  0.000000 -0.000000  0.125000 )  


     PseudoPot. # 1 for B  read from file:
     ../../../../Pseudo/PBE/B.upf
     MD5 check sum: 72f82fc31bc892420d0cab7e25c88ab8
     Pseudo is Norm-conserving + core correction, Zval =  3.0
     Generated using ONCVPSP code by D. R. Hamann
     Using radial grid of 1534 points,  4 beta functions with: 
                l(1) =   0
                l(2) =   0
                l(3) =   1
                l(4) =   1

     PseudoPot. # 2 for N  read from file:
     ../../../../Pseudo/PBE/N.upf
     MD5 check sum: d34365f73bb0e2ee98afc20ec3e87676
     Pseudo is Norm-conserving + core correction, Zval =  5.0
     Generated using ONCVPSP code by D. R. Hamann
     Using radial grid of 1058 points,  4 beta functions with: 
                l(1) =   0
                l(2) =   0
                l(3) =   1
                l(4) =   1

     atomic species   valence    mass     pseudopotential
        B              3.00    10.00000     B ( 1.00)
        N              5.00    14.01100     N ( 1.00)

      6 Sym. Ops. (no inversion) found


                                    s                        frac. trans.

      isym =  1     identity                                     

 cryst.   s( 1) = (     1          0          0      )
                  (     0          1          0      )
                  (     0          0          1      )

 cart.    s( 1) = (  1.0000000  0.0000000  0.0000000 )
                  (  0.0000000  1.0000000  0.0000000 )
                  (  0.0000000  0.0000000  1.0000000 )


      isym =  2     120 deg rotation - cryst. axis [0,0,1]       

 cryst.   s( 2) = (     0          1          0      )
                  (    -1         -1          0      )
                  (     0          0          1      )

 cart.    s( 2) = ( -0.5000000 -0.8660254  0.0000000 )
                  (  0.8660254 -0.5000000  0.0000000 )
                  (  0.0000000  0.0000000  1.0000000 )


      isym =  3     120 deg rotation - cryst. axis [0,0,-1]      

 cryst.   s( 3) = (    -1         -1          0      )
                  (     1          0          0      )
                  (     0          0          1      )

 cart.    s( 3) = ( -0.5000000  0.8660254  0.0000000 )
                  ( -0.8660254 -0.5000000  0.0000000 )
                  (  0.0000000  0.0000000  1.0000000 )


      isym =  4     inv. 180 deg rotation - cart. axis [1,0,0]   

 cryst.   s( 4) = (    -1          0          0      )
                  (     1          1          0      )
                  (     0          0          1      )

 cart.    s( 4) = ( -1.0000000  0.0000000  0.0000000 )
                  (  0.0000000  1.0000000  0.0000000 )
                  (  0.0000000  0.0000000  1.0000000 )


      isym =  5     inv. 180 deg rotation - cryst. axis [0,1,0]  

 cryst.   s( 5) = (     1          1          0      )
                  (     0         -1          0      )
                  (     0          0          1      )

 cart.    s( 5) = (  0.5000000  0.8660254  0.0000000 )
                  (  0.8660254 -0.5000000  0.0000000 )
                  (  0.0000000  0.0000000  1.0000000 )


      isym =  6     inv. 180 deg rotation - cryst. axis [1,1,0]  

 cryst.   s( 6) = (     0         -1          0      )
                  (    -1          0          0      )
                  (     0          0          1      )

 cart.    s( 6) = (  0.5000000 -0.8660254  0.0000000 )
                  ( -0.8660254 -0.5000000  0.0000000 )
                  (  0.0000000  0.0000000  1.0000000 )


     point group C_3v (3m)  
     there are  3 classes
     the character table:

       E     2C3   3s_v 
A_1    1.00  1.00  1.00
A_2    1.00  1.00 -1.00
E      2.00 -1.00  0.00

     the symmetry operations in each class and the name of the first element:

     E        1
          identity                                               
     2C3      2    3
          120 deg rotation - cryst. axis [0,0,1]                 
     3s_v     4    5    6
          inv. 180 deg rotation - cart. axis [1,0,0]             

   Cartesian axes

     site n.     atom                  positions (alat units)
         1           B   tau(   1) = (   0.0000000   0.0000000   0.0000000  )
         2           N   tau(   2) = (   0.5000005   0.2886748   0.0000000  )
         3           B   tau(   3) = (   0.0000000   0.0000000   1.4181600  )
         4           N   tau(   4) = (   0.5000005   0.2886748   1.4181600  )

   Crystallographic axes

     site n.     atom                  positions (cryst. coord.)
         1           B   tau(   1) = (  0.0000000  0.0000000  0.0000000  )
         2           N   tau(   2) = (  0.6666670  0.3333330  0.0000000  )
         3           B   tau(   3) = (  0.0000000  0.0000000  0.1772700  )
         4           N   tau(   4) = (  0.6666670  0.3333330  0.1772700  )

     number of k points=    19  Marzari-Vanderbilt smearing, width (Ry)=  0.0050
                       cart. coord. in units 2pi/alat
        k(    1) = (   0.0000000   0.0000000   0.0000000), wk =   0.0138889
        k(    2) = (   0.0000000   0.0962250   0.0000000), wk =   0.0833333
        k(    3) = (   0.0000000   0.1924501   0.0000000), wk =   0.0833333
        k(    4) = (   0.0000000   0.2886751   0.0000000), wk =   0.0833333
        k(    5) = (   0.0000000   0.3849002   0.0000000), wk =   0.0833333
        k(    6) = (   0.0000000   0.4811252   0.0000000), wk =   0.0833333
        k(    7) = (   0.0000000  -0.5773503   0.0000000), wk =   0.0416667
        k(    8) = (   0.0833333   0.1443376   0.0000000), wk =   0.0833333
        k(    9) = (   0.0833333   0.2405626   0.0000000), wk =   0.1666667
        k(   10) = (   0.0833333   0.3367877   0.0000000), wk =   0.1666667
        k(   11) = (   0.0833333   0.4330127   0.0000000), wk =   0.1666667
        k(   12) = (   0.0833333   0.5292377   0.0000000), wk =   0.1666667
        k(   13) = (   0.1666667   0.2886751   0.0000000), wk =   0.0833333
        k(   14) = (   0.1666667   0.3849002   0.0000000), wk =   0.1666667
        k(   15) = (   0.1666667   0.4811252   0.0000000), wk =   0.1666667
        k(   16) = (   0.1666667   0.5773503   0.0000000), wk =   0.0833333
        k(   17) = (   0.2500000   0.4330127   0.0000000), wk =   0.0833333
        k(   18) = (   0.2500000   0.5292377   0.0000000), wk =   0.1666667
        k(   19) = (   0.3333333   0.5773503   0.0000000), wk =   0.0277778

                       cryst. coord.
        k(    1) = (   0.0000000   0.0000000   0.0000000), wk =   0.0138889
        k(    2) = (   0.0000000   0.0833333   0.0000000), wk =   0.0833333
        k(    3) = (   0.0000000   0.1666667   0.0000000), wk =   0.0833333
        k(    4) = (   0.0000000   0.2500000   0.0000000), wk =   0.0833333
        k(    5) = (   0.0000000   0.3333333   0.0000000), wk =   0.0833333
        k(    6) = (   0.0000000   0.4166667   0.0000000), wk =   0.0833333
        k(    7) = (   0.0000000  -0.5000000   0.0000000), wk =   0.0416667
        k(    8) = (   0.0833333   0.0833333   0.0000000), wk =   0.0833333
        k(    9) = (   0.0833333   0.1666667   0.0000000), wk =   0.1666667
        k(   10) = (   0.0833333   0.2500000   0.0000000), wk =   0.1666667
        k(   11) = (   0.0833333   0.3333333   0.0000000), wk =   0.1666667
        k(   12) = (   0.0833333   0.4166667   0.0000000), wk =   0.1666667
        k(   13) = (   0.1666667   0.1666667   0.0000000), wk =   0.0833333
        k(   14) = (   0.1666667   0.2500000   0.0000000), wk =   0.1666667
        k(   15) = (   0.1666667   0.3333333   0.0000000), wk =   0.1666667
        k(   16) = (   0.1666667   0.4166667   0.0000000), wk =   0.0833333
        k(   17) = (   0.2500000   0.2500000   0.0000000), wk =   0.0833333
        k(   18) = (   0.2500000   0.3333333   0.0000000), wk =   0.1666667
        k(   19) = (   0.3333333   0.3333333   0.0000000), wk =   0.0277778

     Dense  grid:   131845 G-vectors     FFT dimensions: (  36,  36, 270)

     Dynamical RAM for                 wfc:       0.38 MB

     Dynamical RAM for     wfc (w. buffer):       7.53 MB

     Dynamical RAM for           str. fact:       0.50 MB

     Dynamical RAM for           local pot:       0.25 MB

     Dynamical RAM for          nlocal pot:       1.00 MB

     Dynamical RAM for                qrad:       2.01 MB

     Dynamical RAM for          rho,v,vnew:       1.76 MB

     Dynamical RAM for               rhoin:       0.59 MB

     Dynamical RAM for            rho*nmix:       4.02 MB

     Dynamical RAM for           G-vectors:       1.07 MB

     Dynamical RAM for          h,s,v(r/c):       0.03 MB

     Dynamical RAM for          <psi|beta>:       0.01 MB

     Dynamical RAM for                 psi:       0.75 MB

     Dynamical RAM for                hpsi:       0.75 MB

     Dynamical RAM for      wfcinit/wfcrot:       1.01 MB

     Estimated static dynamical RAM per process >      17.15 MB

     Estimated max dynamical RAM per process >      22.72 MB

     Estimated total dynamical RAM >     181.72 MB

     Initial potential from superposition of free atoms

     starting charge      15.9995, renormalised to      16.0000

     negative rho (up, down):  3.828E-06 0.000E+00


     -----------------------------------------------
     Non-local corr. energy    =       0.17832749 Ry
     -----------------------------------------------

     Starting wfcs are   16 randomized atomic wfcs

     total cpu time spent up to now is       30.6 secs

     Self-consistent Calculation

     iteration #  1     ecut=   120.00 Ry     beta= 0.70
     Davidson diagonalization with overlap

---- Real-time Memory Report at c_bands before calling an iterative solver
             0 MiB given to the printing process from OS
             0 MiB allocation reported by mallinfo(arena+hblkhd)
             0 MiB available memory on the node where the printing process lives
------------------
     c_bands:  1 eigenvalues not converged
     c_bands:  3 eigenvalues not converged
     c_bands:  3 eigenvalues not converged
     c_bands:  2 eigenvalues not converged
     c_bands:  1 eigenvalues not converged
     c_bands:  3 eigenvalues not converged
     c_bands:  1 eigenvalues not converged
     c_bands:  2 eigenvalues not converged
     c_bands:  2 eigenvalues not converged
     c_bands:  1 eigenvalues not converged
     c_bands:  1 eigenvalues not converged
     ethr =  1.00E-06,  avg # of iterations = 18.4

     negative rho (up, down):  1.130E-06 0.000E+00


     -----------------------------------------------
     Non-local corr. energy    =       0.20889004 Ry
     -----------------------------------------------


     total cpu time spent up to now is       35.6 secs

     total energy              =     -53.43960683 Ry
     estimated scf accuracy    <       0.78459687 Ry

     iteration #  2     ecut=   120.00 Ry     beta= 0.70
     Davidson diagonalization with overlap

---- Real-time Memory Report at c_bands before calling an iterative solver
             0 MiB given to the printing process from OS
             0 MiB allocation reported by mallinfo(arena+hblkhd)
             0 MiB available memory on the node where the printing process lives
------------------
     ethr =  4.90E-03,  avg # of iterations =  3.3

     negative rho (up, down):  1.776E-07 0.000E+00


     -----------------------------------------------
     Non-local corr. energy    =       0.20218170 Ry
     -----------------------------------------------


     total cpu time spent up to now is       37.0 secs

     total energy              =     -53.64305266 Ry
     estimated scf accuracy    <       0.32598838 Ry

     iteration #  3     ecut=   120.00 Ry     beta= 0.70
     Davidson diagonalization with overlap

---- Real-time Memory Report at c_bands before calling an iterative solver
             0 MiB given to the printing process from OS
             0 MiB allocation reported by mallinfo(arena+hblkhd)
             0 MiB available memory on the node where the printing process lives
------------------
     ethr =  2.04E-03,  avg # of iterations =  1.8


     -----------------------------------------------
     Non-local corr. energy    =       0.20387205 Ry
     -----------------------------------------------


     total cpu time spent up to now is       38.2 secs

     total energy              =     -53.69760294 Ry
     estimated scf accuracy    <       0.00447516 Ry

     iteration #  4     ecut=   120.00 Ry     beta= 0.70
     Davidson diagonalization with overlap

---- Real-time Memory Report at c_bands before calling an iterative solver
             0 MiB given to the printing process from OS
             0 MiB allocation reported by mallinfo(arena+hblkhd)
             0 MiB available memory on the node where the printing process lives
------------------
     ethr =  2.80E-05,  avg # of iterations =  8.1


     -----------------------------------------------
     Non-local corr. energy    =       0.20403766 Ry
     -----------------------------------------------


     total cpu time spent up to now is       40.6 secs

     total energy              =     -53.70164100 Ry
     estimated scf accuracy    <       0.00471906 Ry

     iteration #  5     ecut=   120.00 Ry     beta= 0.70
     Davidson diagonalization with overlap

---- Real-time Memory Report at c_bands before calling an iterative solver
             0 MiB given to the printing process from OS
             0 MiB allocation reported by mallinfo(arena+hblkhd)
             0 MiB available memory on the node where the printing process lives
------------------
     ethr =  2.80E-05,  avg # of iterations =  2.5


     -----------------------------------------------
     Non-local corr. energy    =       0.20404158 Ry
     -----------------------------------------------


     total cpu time spent up to now is       41.9 secs

     total energy              =     -53.70178213 Ry
     estimated scf accuracy    <       0.00086243 Ry

     iteration #  6     ecut=   120.00 Ry     beta= 0.70
     Davidson diagonalization with overlap

---- Real-time Memory Report at c_bands before calling an iterative solver
             0 MiB given to the printing process from OS
             0 MiB allocation reported by mallinfo(arena+hblkhd)
             0 MiB available memory on the node where the printing process lives
------------------
     c_bands:  1 eigenvalues not converged
     ethr =  5.39E-06,  avg # of iterations =  4.4


     -----------------------------------------------
     Non-local corr. energy    =       0.20409194 Ry
     -----------------------------------------------


     total cpu time spent up to now is       43.3 secs

     total energy              =     -53.70206675 Ry
     estimated scf accuracy    <       0.00004324 Ry

     iteration #  7     ecut=   120.00 Ry     beta= 0.70
     Davidson diagonalization with overlap

---- Real-time Memory Report at c_bands before calling an iterative solver
             0 MiB given to the printing process from OS
             0 MiB allocation reported by mallinfo(arena+hblkhd)
             0 MiB available memory on the node where the printing process lives
------------------
     ethr =  2.70E-07,  avg # of iterations =  3.5


     -----------------------------------------------
     Non-local corr. energy    =       0.20410318 Ry
     -----------------------------------------------


     total cpu time spent up to now is       44.7 secs

     total energy              =     -53.70206566 Ry
     estimated scf accuracy    <       0.00001520 Ry

     iteration #  8     ecut=   120.00 Ry     beta= 0.70
     Davidson diagonalization with overlap

---- Real-time Memory Report at c_bands before calling an iterative solver
             0 MiB given to the printing process from OS
             0 MiB allocation reported by mallinfo(arena+hblkhd)
             0 MiB available memory on the node where the printing process lives
------------------
     ethr =  9.50E-08,  avg # of iterations =  2.0


     -----------------------------------------------
     Non-local corr. energy    =       0.20409783 Ry
     -----------------------------------------------


     total cpu time spent up to now is       45.8 secs

     End of self-consistent calculation

          k = 0.0000 0.0000 0.0000 ( 16459 PWs)   bands (ev):

   -20.1030 -20.0148  -8.0844  -7.3097  -3.8688  -3.8688  -3.8589  -3.8588
     1.9505   2.5333   3.6605   4.5555

     occupation numbers 
     1.0000   1.0000   1.0000   1.0000   1.0000   1.0000   1.0000   1.0000
     0.0000   0.0000   0.0000   0.0000

          k = 0.0000 0.0962 0.0000 ( 16505 PWs)   bands (ev):

   -19.9699 -19.8832  -7.9025  -7.1351  -4.4250  -4.4047  -4.1236  -4.1127
     2.1832   2.7474   3.8804   4.7465

     occupation numbers 
     1.0000   1.0000   1.0000   1.0000   1.0000   1.0000   1.0000   1.0000
     0.0000   0.0000   0.0000   0.0000

          k = 0.0000 0.1925 0.0000 ( 16483 PWs)   bands (ev):

   -19.5783 -19.4958  -7.3652  -6.6215  -5.8236  -5.7858  -4.7453  -4.7324
     2.8421   3.3706   4.5180   5.2419

     occupation numbers 
     1.0000   1.0000   1.0000   1.0000   1.0000   1.0000   1.0000   1.0000
     0.0000   0.0000   0.0000   0.0000

          k = 0.0000 0.2887 0.0000 ( 16460 PWs)   bands (ev):

   -18.9553 -18.8799  -7.6000  -7.5478  -6.4931  -5.7927  -5.4674  -5.4527
     3.8794   4.3311   5.2315   5.8100

     occupation numbers 
     1.0000   1.0000   1.0000   1.0000   1.0000   1.0000   1.0000   1.0000
     0.0000   0.0000   0.0000   0.0000

          k = 0.0000 0.3849 0.0000 ( 16432 PWs)   bands (ev):

   -18.1698 -18.1043  -9.3622  -9.2983  -6.0887  -6.0727  -5.3733  -4.7421
     4.1802   4.7771   5.2322   6.3947

     occupation numbers 
     1.0000   1.0000   1.0000   1.0000   1.0000   1.0000   1.0000   1.0000
     0.0000   0.0000   0.0000   0.0000

          k = 0.0000 0.4811 0.0000 ( 16454 PWs)   bands (ev):

   -17.3981 -17.3446 -10.7743 -10.6972  -6.4967  -6.4799  -4.2064  -3.6817
     2.6010   3.4928   6.5580   7.3963

     occupation numbers 
     1.0000   1.0000   1.0000   1.0000   1.0000   1.0000   1.0000   1.0000
     0.0000   0.0000   0.0000   0.0000

          k = 0.0000-0.5774 0.0000 ( 16482 PWs)   bands (ev):

   -17.0349 -16.9883 -11.3590 -11.2746  -6.6379  -6.6209  -3.6081  -3.1626
     1.8217   2.8071   6.9982   7.5566

     occupation numbers 
     1.0000   1.0000   1.0000   1.0000   1.0000   1.0000   1.0000   1.0000
     0.0000   0.0000   0.0000   0.0000

          k = 0.0833 0.1443 0.0000 ( 16509 PWs)   bands (ev):

   -19.7075 -19.6236  -7.5426  -6.7904  -5.3355  -5.3036  -4.6287  -4.6148
     2.6298   3.1668   4.3112   5.0947

     occupation numbers 
     1.0000   1.0000   1.0000   1.0000   1.0000   1.0000   1.0000   1.0000
     0.0000   0.0000   0.0000   0.0000

          k = 0.0833 0.2406 0.0000 ( 16455 PWs)   bands (ev):

   -19.1989 -19.1206  -6.8843  -6.7721  -6.7650  -6.1135  -5.4117  -5.3933
     3.4854   3.9700   5.0913   5.5976

     occupation numbers 
     1.0000   1.0000   1.0000   1.0000   1.0000   1.0000   1.0000   1.0000
     0.0000   0.0000   0.0000   0.0000

          k = 0.0833 0.3368 0.0000 ( 16451 PWs)   bands (ev):

   -18.4882 -18.4184  -8.5165  -8.4601  -6.1545  -6.1322  -5.8331  -5.1704
     4.7092   4.8429   4.8945   6.4250

     occupation numbers 
     1.0000   1.0000   1.0000   1.0000   1.0000   1.0000   1.0000   1.0000
     0.0000   0.0000   0.0000   0.0000

          k = 0.0833 0.4330 0.0000 ( 16446 PWs)   bands (ev):

   -17.6859 -17.6272 -10.0923 -10.0233  -6.7018  -6.6784  -4.6573  -4.0830
     3.3481   4.1373   6.1999   7.1356

     occupation numbers 
     1.0000   1.0000   1.0000   1.0000   1.0000   1.0000   1.0000   1.0000
     0.0000   0.0000   0.0000   0.0000

          k = 0.0833 0.5292 0.0000 ( 16464 PWs)   bands (ev):

   -17.0664 -17.0185 -11.1283 -11.0478  -6.9892  -6.9651  -3.6731  -3.2107
     2.0627   2.9991   7.3592   8.0729

     occupation numbers 
     1.0000   1.0000   1.0000   1.0000   1.0000   1.0000   1.0000   1.0000
     0.0000   0.0000   0.0000   0.0000

          k = 0.1667 0.2887 0.0000 ( 16470 PWs)   bands (ev):

   -18.5984 -18.5272  -8.0170  -7.9660  -6.4234  -6.3942  -5.9906  -5.3178
     4.5427   4.8262   5.0870   6.5626

     occupation numbers 
     1.0000   1.0000   1.0000   1.0000   1.0000   1.0000   1.0000   1.0000
     0.0000   0.0000   0.0000   0.0000

          k = 0.1667 0.3849 0.0000 ( 16424 PWs)   bands (ev):

   -17.8492 -17.7877  -9.3579  -9.2988  -7.2846  -7.2484  -4.9083  -4.3084
     3.9335   4.6063   5.9678   6.8730

     occupation numbers 
     1.0000   1.0000   1.0000   1.0000   1.0000   1.0000   1.0000   1.0000
     0.0000   0.0000   0.0000   0.0000

          k = 0.1667 0.4811 0.0000 ( 16461 PWs)   bands (ev):

   -17.1268 -17.0766 -10.5370 -10.4667  -7.8035  -7.7637  -3.7940  -3.3023
     2.5810   3.4064   7.6289   8.4679

     occupation numbers 
     1.0000   1.0000   1.0000   1.0000   1.0000   1.0000   1.0000   1.0000
     0.0000   0.0000   0.0000   0.0000

          k = 0.1667 0.5774 0.0000 ( 16464 PWs)   bands (ev):

   -16.7943 -16.7503 -11.0392 -10.9625  -7.9743  -7.9336  -3.2310  -2.8167
     1.9099   2.8157   8.6508   9.5022

     occupation numbers 
     1.0000   1.0000   1.0000   1.0000   1.0000   1.0000   1.0000   1.0000
     0.0000   0.0000   0.0000   0.0000

          k = 0.2500 0.4330 0.0000 ( 16426 PWs)   bands (ev):

   -17.1558 -17.1045 -10.0776 -10.0165  -8.3665  -8.3153  -3.8506  -3.3459
     2.8667   3.6254   7.5758   8.3255

     occupation numbers 
     1.0000   1.0000   1.0000   1.0000   1.0000   1.0000   1.0000   1.0000
     0.0000   0.0000   0.0000   0.0000

          k = 0.2500 0.5292 0.0000 ( 16465 PWs)   bands (ev):

   -16.6519 -16.6093 -10.5858 -10.5214  -8.9746  -8.9147  -3.0060  -2.6082
     2.0192   2.8502   9.2364   9.3575

     occupation numbers 
     1.0000   1.0000   1.0000   1.0000   1.0000   1.0000   1.0000   1.0000
     0.0000   0.0000   0.0000   0.0000

          k = 0.3333 0.5774 0.0000 ( 16482 PWs)   bands (ev):

   -16.4602 -16.4208 -10.3608 -10.3138  -9.6634  -9.5806  -2.6629  -2.3138
     1.7988   2.6329   8.8948  10.1948

     occupation numbers 
     1.0000   1.0000   1.0000   1.0000   1.0000   1.0000   1.0000   1.0000
     0.0000   0.0000   0.0000   0.0000

     the Fermi energy is    -0.9968 ev

!    total energy              =     -53.70206782 Ry
     estimated scf accuracy    <       0.00000031 Ry
     smearing contrib. (-TS)   =       0.00000000 Ry
     internal energy E=F+TS    =     -53.70206782 Ry

     The total energy is F=E-TS. E is the sum of the following terms:
     one-electron contribution =    -508.08434321 Ry
     hartree contribution      =     258.20035357 Ry
     xc contribution           =     -17.37105010 Ry
     ewald contribution        =     213.55297193 Ry

     convergence has been achieved in   8 iterations


     -----------------------------------------------
     Non-local corr. energy    =       0.20409783 Ry
     -----------------------------------------------


     Forces acting on atoms (cartesian axes, Ry/au):

     atom    1 type  1   force =     0.00000000    0.00000000    0.00033267
     atom    2 type  2   force =     0.00000000    0.00000000   -0.00035372
     atom    3 type  1   force =     0.00000000    0.00000000   -0.00031831
     atom    4 type  2   force =     0.00000000   -0.00000000    0.00033936
     The non-local contrib.  to forces
     atom    1 type  1   force =     0.00000000    0.00000000   -0.00065685
     atom    2 type  2   force =     0.00000000    0.00000000   -0.00171432
     atom    3 type  1   force =     0.00000000    0.00000000    0.00065617
     atom    4 type  2   force =     0.00000000    0.00000000    0.00169240
     The ionic contribution  to forces
     atom    1 type  1   force =     0.00000770   -0.00000445   -9.97274536
     atom    2 type  2   force =    -0.00000770    0.00000445  -16.62321249
     atom    3 type  1   force =     0.00000770   -0.00000445    9.97274536
     atom    4 type  2   force =    -0.00000770    0.00000445   16.62321249
     The local contribution  to forces
     atom    1 type  1   force =     0.00000000    0.00000000    9.97386008
     atom    2 type  2   force =    -0.00003354    0.00001937   16.62486359
     atom    3 type  1   force =     0.00000000    0.00000000   -9.97383662
     atom    4 type  2   force =    -0.00003354    0.00001937  -16.62482102
     The core correction contribution to forces
     atom    1 type  1   force =     0.00000000   -0.00000000    0.00000556
     atom    2 type  2   force =     0.00000139   -0.00000080    0.00002631
     atom    3 type  1   force =     0.00000000   -0.00000000   -0.00000555
     atom    4 type  2   force =     0.00000139   -0.00000080   -0.00002539
     The Hubbard contrib.    to forces
     atom    1 type  1   force =     0.00000000    0.00000000    0.00000000
     atom    2 type  2   force =     0.00000000    0.00000000    0.00000000
     atom    3 type  1   force =     0.00000000    0.00000000    0.00000000
     atom    4 type  2   force =     0.00000000    0.00000000    0.00000000
     The SCF correction term to forces
     atom    1 type  1   force =     0.00000000   -0.00000000   -0.00000000
     atom    2 type  2   force =    -0.00000000    0.00000000   -0.00000000
     atom    3 type  1   force =    -0.00000000    0.00000000    0.00011453
     atom    4 type  2   force =    -0.00000000    0.00000000    0.00027308

     Total force =     0.000465     Total SCF correction =     0.000296
     SCF correction compared to forces is large: reduce conv_thr to get better values


     Computing stress (Cartesian axis) and pressure



     -----------------------------------------------
     Non-local corr. energy    =       0.20409783 Ry
     -----------------------------------------------

          total   stress  (Ry/bohr**3)                   (kbar)     P=       -0.33
  -0.00000259  -0.00000000   0.00000000           -0.38       -0.00        0.00
  -0.00000000  -0.00000259   0.00000000           -0.00       -0.38        0.00
   0.00000000   0.00000000  -0.00000161            0.00        0.00       -0.24

     kinetic stress (kbar)   4797.38     -0.00      0.00
                               -0.00   4797.38      0.00
                                0.00      0.00   5222.66

     local   stress (kbar)-103678.89      0.00      0.00
                                0.00-103678.89     -0.00
                                0.00     -0.00 104344.04

     nonloc. stress (kbar)   -790.87     -0.00     -0.00
                               -0.00   -790.87      0.00
                               -0.00      0.00   -764.24

     hartree stress (kbar)  50397.40     -0.00     -0.00
                               -0.00  50397.40      0.00
                               -0.00      0.00 -49563.75

     exc-cor stress (kbar)   -481.92     -0.00     -0.00
                               -0.00   -481.92      0.00
                               -0.00      0.00   -529.74

     corecor stress (kbar)   -538.92      0.00     -0.00
                                0.00   -538.92      0.00
                               -0.00      0.00   -527.25

     ewald   stress (kbar)  50291.14     -0.01      0.00
                               -0.01  50291.13     -0.00
                                0.00     -0.00 -58209.96

     hubbard stress (kbar)      0.00      0.00      0.00
                                0.00      0.00      0.00
                                0.00      0.00      0.00

     DFT-D   stress (kbar)      0.00      0.00      0.00
                                0.00      0.00      0.00
                                0.00      0.00      0.00

     XDM     stress (kbar)      0.00      0.00      0.00
                                0.00      0.00      0.00
                                0.00      0.00      0.00

     dft-nl  stress (kbar)      4.30      0.00     -0.00
                                0.00      4.30      0.00
                               -0.00      0.00     28.01

     TS-vdW  stress (kbar)      0.00      0.00      0.00
                                0.00      0.00      0.00
                                0.00      0.00      0.00

     MDB     stress (kbar)      0.00      0.00      0.00
                                0.00      0.00      0.00
                                0.00      0.00      0.00

     3D-RISM stress (kbar)      0.00      0.00      0.00
                                0.00      0.00      0.00
                                0.00      0.00      0.00


     Writing all to output data dir ./tmp/BN2L_AA_PBE_vdW.save/

     init_run     :     12.69s CPU     12.83s WALL (       2 calls)
     electrons    :     29.39s CPU     28.85s WALL (       2 calls)
     forces       :      2.13s CPU      2.20s WALL (       2 calls)
     stress       :      5.65s CPU      6.10s WALL (       2 calls)

     Called by init_run:
     wfcinit      :      0.89s CPU      0.90s WALL (       2 calls)
     wfcinit:atom :      0.02s CPU      0.03s WALL (      38 calls)
     wfcinit:wfcr :      0.79s CPU      0.79s WALL (      38 calls)
     potinit      :      9.65s CPU      9.76s WALL (       2 calls)
     hinit0       :      1.65s CPU      1.67s WALL (       2 calls)

     Called by electrons:
     c_bands      :     23.92s CPU     22.89s WALL (      17 calls)
     sum_band     :      2.48s CPU      2.54s WALL (      17 calls)
     v_of_rho     :     11.75s CPU     12.20s WALL (      19 calls)
     v_h          :      0.04s CPU      0.04s WALL (      19 calls)
     v_xc         :     12.37s CPU     12.90s WALL (      23 calls)
     mix_rho      :      0.11s CPU      0.17s WALL (      17 calls)
     vdW_kernel   :      8.59s CPU      8.65s WALL (       1 calls)

     Called by c_bands:
     init_us_2    :      0.49s CPU      0.50s WALL (     760 calls)
     init_us_2:cp :      0.49s CPU      0.50s WALL (     760 calls)
     cegterg      :     23.26s CPU     22.20s WALL (     323 calls)

     Called by sum_band:
     sum_band:wei :      0.00s CPU      0.00s WALL (      17 calls)
     sum_band:loo :      2.41s CPU      2.47s WALL (      17 calls)
     sum_band:buf :      0.09s CPU      0.09s WALL (     323 calls)
     sum_band:ini :      0.23s CPU      0.23s WALL (     323 calls)

     Called by *egterg:
     cdiaghg      :      0.38s CPU      0.39s WALL (    1890 calls)
     cegterg:over :      1.37s CPU      1.41s WALL (    1567 calls)
     cegterg:upda :      1.07s CPU      0.84s WALL (    1567 calls)
     cegterg:last :      1.61s CPU      1.09s WALL (    1001 calls)
     h_psi        :     18.85s CPU     18.41s WALL (    1928 calls)
     g_psi        :      0.13s CPU      0.15s WALL (    1567 calls)

     Called by h_psi:
     h_psi:calbec :      1.61s CPU      1.49s WALL (    1928 calls)
     vloc_psi     :     15.05s CPU     15.48s WALL (    1928 calls)
     add_vuspsi   :      2.01s CPU      1.26s WALL (    1928 calls)

     General routines
     calbec       :      1.82s CPU      1.69s WALL (    2118 calls)
     fft          :      1.76s CPU      1.81s WALL (    1476 calls)
     ffts         :      0.02s CPU      0.02s WALL (      17 calls)
     fftw         :     14.47s CPU     14.84s WALL (   32236 calls)

     Parallel routines

     PWSCF        :     49.99s CPU     50.17s WALL


   This run was terminated on:  16:33:56  17Apr2024            

=------------------------------------------------------------------------------=
   JOB DONE.
=------------------------------------------------------------------------------=
