
     Program PWSCF v.7.2 starts on  4Apr2024 at  9:49:17 

     This program is part of the open-source Quantum ESPRESSO suite
     for quantum simulation of materials; please cite
         "P. Giannozzi et al., J. Phys.:Condens. Matter 21 395502 (2009);
         "P. Giannozzi et al., J. Phys.:Condens. Matter 29 465901 (2017);
         "P. Giannozzi et al., J. Chem. Phys. 152 154105 (2020);
          URL http://www.quantum-espresso.org", 
     in publications or presentations arising from this work. More details at
     http://www.quantum-espresso.org/quote

     Parallel version (MPI & OpenMP), running on       8 processor cores
     Number of MPI processes:                 8
     Threads/MPI process:                     1

     MPI processes distributed on     1 nodes
     0 MiB available memory on the printing compute node when the environment starts

     Waiting for input...
     Reading input from standard input

     Current dimensions of program PWSCF are:
     Max number of different atomic species (ntypx) = 10
     Max number of k-points (npk) =  40000
     Max angular momentum in pseudopotentials (lmaxx) =  4

     R & G space division:  proc/nbgrp/npool/nimage =       8
     Subspace diagonalization in iterative solution of the eigenvalue problem:
     a serial algorithm will be used


     Parallelization info
     --------------------
     sticks:   dense  smooth     PW     G-vecs:    dense   smooth      PW
     Min          59      59     18                 8471     8471    1422
     Max          60      60     19                 8504     8504    1439
     Sum         475     475    151                67863    67863   11451

     Using Slab Decomposition



     bravais-lattice index     =            4
     lattice parameter (alat)  =       4.6645  a.u.
     unit-cell volume          =     703.1169 (a.u.)^3
     number of atoms/cell      =            4
     number of atomic types    =            1
     number of electrons       =        16.00
     number of Kohn-Sham states=           12
     kinetic-energy cutoff     =      80.0000  Ry
     charge density cutoff     =     320.0000  Ry
     scf convergence threshold =      1.0E-06
     mixing beta               =       0.7000
     number of iterations used =            8  plain     mixing
     energy convergence thresh.=      1.0E-04
     force convergence thresh. =      1.0E-03
     press convergence thresh. =      5.0E-01
     Exchange-correlation= PBE
                           (   1   4   3   4   0   0   0)
     nstep                     =           50


     celldm(1)=   4.664470  celldm(2)=   0.000000  celldm(3)=   8.000000
     celldm(4)=   0.000000  celldm(5)=   0.000000  celldm(6)=   0.000000

     crystal axes: (cart. coord. in units of alat)
               a(1) = (   1.000000   0.000000   0.000000 )  
               a(2) = (  -0.500000   0.866025   0.000000 )  
               a(3) = (   0.000000   0.000000   8.000000 )  

     reciprocal axes: (cart. coord. in units 2 pi/alat)
               b(1) = (  1.000000  0.577350 -0.000000 )  
               b(2) = (  0.000000  1.154701  0.000000 )  
               b(3) = (  0.000000 -0.000000  0.125000 )  


     PseudoPot. # 1 for C  read from file:
     ../../../../Pseudo/PBE/C.upf
     MD5 check sum: 34a24e64c0a39f27c6c36b90a16ac686
     Pseudo is Norm-conserving + core correction, Zval =  4.0
     Generated using ONCVPSP code by D. R. Hamann
     Using radial grid of 1248 points,  4 beta functions with: 
                l(1) =   0
                l(2) =   0
                l(3) =   1
                l(4) =   1

     atomic species   valence    mass     pseudopotential
        C              4.00    12.01100     C ( 1.00)

      6 Sym. Ops. (no inversion) found


                                    s                        frac. trans.

      isym =  1     identity                                     

 cryst.   s( 1) = (     1          0          0      )
                  (     0          1          0      )
                  (     0          0          1      )

 cart.    s( 1) = (  1.0000000  0.0000000  0.0000000 )
                  (  0.0000000  1.0000000  0.0000000 )
                  (  0.0000000  0.0000000  1.0000000 )


      isym =  2     120 deg rotation - cryst. axis [0,0,1]       

 cryst.   s( 2) = (     0          1          0      )
                  (    -1         -1          0      )
                  (     0          0          1      )

 cart.    s( 2) = ( -0.5000000 -0.8660254  0.0000000 )
                  (  0.8660254 -0.5000000  0.0000000 )
                  (  0.0000000  0.0000000  1.0000000 )


      isym =  3     120 deg rotation - cryst. axis [0,0,-1]      

 cryst.   s( 3) = (    -1         -1          0      )
                  (     1          0          0      )
                  (     0          0          1      )

 cart.    s( 3) = ( -0.5000000  0.8660254  0.0000000 )
                  ( -0.8660254 -0.5000000  0.0000000 )
                  (  0.0000000  0.0000000  1.0000000 )


      isym =  4     inv. 180 deg rotation - cart. axis [1,0,0]   

 cryst.   s( 4) = (    -1          0          0      )
                  (     1          1          0      )
                  (     0          0          1      )

 cart.    s( 4) = ( -1.0000000  0.0000000  0.0000000 )
                  (  0.0000000  1.0000000  0.0000000 )
                  (  0.0000000  0.0000000  1.0000000 )


      isym =  5     inv. 180 deg rotation - cryst. axis [0,1,0]  

 cryst.   s( 5) = (     1          1          0      )
                  (     0         -1          0      )
                  (     0          0          1      )

 cart.    s( 5) = (  0.5000000  0.8660254  0.0000000 )
                  (  0.8660254 -0.5000000  0.0000000 )
                  (  0.0000000  0.0000000  1.0000000 )


      isym =  6     inv. 180 deg rotation - cryst. axis [1,1,0]  

 cryst.   s( 6) = (     0         -1          0      )
                  (    -1          0          0      )
                  (     0          0          1      )

 cart.    s( 6) = (  0.5000000 -0.8660254  0.0000000 )
                  ( -0.8660254 -0.5000000  0.0000000 )
                  (  0.0000000  0.0000000  1.0000000 )


     point group C_3v (3m)  
     there are  3 classes
     the character table:

       E     2C3   3s_v 
A_1    1.00  1.00  1.00
A_2    1.00  1.00 -1.00
E      2.00 -1.00  0.00

     the symmetry operations in each class and the name of the first element:

     E        1
          identity                                               
     2C3      2    3
          120 deg rotation - cryst. axis [0,0,1]                 
     3s_v     4    5    6
          inv. 180 deg rotation - cart. axis [1,0,0]             

   Cartesian axes

     site n.     atom                  positions (alat units)
         1           C   tau(   1) = (   0.0000000   0.0000000   0.0000000  )
         2           C   tau(   2) = (   0.0000000   0.0000000   1.3401360  )
         3           C   tau(   3) = (   0.5000005   0.2886748   0.0000000  )
         4           C   tau(   4) = (  -0.0000005   0.5773506   1.3401360  )

   Crystallographic axes

     site n.     atom                  positions (cryst. coord.)
         1           C   tau(   1) = (  0.0000000  0.0000000  0.0000000  )
         2           C   tau(   2) = (  0.0000000  0.0000000  0.1675170  )
         3           C   tau(   3) = (  0.6666670  0.3333330  0.0000000  )
         4           C   tau(   4) = (  0.3333330  0.6666670  0.1675170  )

     number of k points=    19  Marzari-Vanderbilt smearing, width (Ry)=  0.0050
                       cart. coord. in units 2pi/alat
        k(    1) = (   0.0000000   0.0000000   0.0000000), wk =   0.0138889
        k(    2) = (   0.0000000   0.0962250   0.0000000), wk =   0.0833333
        k(    3) = (   0.0000000   0.1924501   0.0000000), wk =   0.0833333
        k(    4) = (   0.0000000   0.2886751   0.0000000), wk =   0.0833333
        k(    5) = (   0.0000000   0.3849002   0.0000000), wk =   0.0833333
        k(    6) = (   0.0000000   0.4811252   0.0000000), wk =   0.0833333
        k(    7) = (   0.0000000  -0.5773503   0.0000000), wk =   0.0416667
        k(    8) = (   0.0833333   0.1443376   0.0000000), wk =   0.0833333
        k(    9) = (   0.0833333   0.2405626   0.0000000), wk =   0.1666667
        k(   10) = (   0.0833333   0.3367877   0.0000000), wk =   0.1666667
        k(   11) = (   0.0833333   0.4330127   0.0000000), wk =   0.1666667
        k(   12) = (   0.0833333   0.5292377   0.0000000), wk =   0.1666667
        k(   13) = (   0.1666667   0.2886751   0.0000000), wk =   0.0833333
        k(   14) = (   0.1666667   0.3849002   0.0000000), wk =   0.1666667
        k(   15) = (   0.1666667   0.4811252   0.0000000), wk =   0.1666667
        k(   16) = (   0.1666667   0.5773503   0.0000000), wk =   0.0833333
        k(   17) = (   0.2500000   0.4330127   0.0000000), wk =   0.0833333
        k(   18) = (   0.2500000   0.5292377   0.0000000), wk =   0.1666667
        k(   19) = (   0.3333333   0.5773503   0.0000000), wk =   0.0277778

                       cryst. coord.
        k(    1) = (   0.0000000   0.0000000   0.0000000), wk =   0.0138889
        k(    2) = (   0.0000000   0.0833333   0.0000000), wk =   0.0833333
        k(    3) = (   0.0000000   0.1666667   0.0000000), wk =   0.0833333
        k(    4) = (   0.0000000   0.2500000   0.0000000), wk =   0.0833333
        k(    5) = (   0.0000000   0.3333333   0.0000000), wk =   0.0833333
        k(    6) = (   0.0000000   0.4166667   0.0000000), wk =   0.0833333
        k(    7) = (   0.0000000  -0.5000000   0.0000000), wk =   0.0416667
        k(    8) = (   0.0833333   0.0833333   0.0000000), wk =   0.0833333
        k(    9) = (   0.0833333   0.1666667   0.0000000), wk =   0.1666667
        k(   10) = (   0.0833333   0.2500000   0.0000000), wk =   0.1666667
        k(   11) = (   0.0833333   0.3333333   0.0000000), wk =   0.1666667
        k(   12) = (   0.0833333   0.4166667   0.0000000), wk =   0.1666667
        k(   13) = (   0.1666667   0.1666667   0.0000000), wk =   0.0833333
        k(   14) = (   0.1666667   0.2500000   0.0000000), wk =   0.1666667
        k(   15) = (   0.1666667   0.3333333   0.0000000), wk =   0.1666667
        k(   16) = (   0.1666667   0.4166667   0.0000000), wk =   0.0833333
        k(   17) = (   0.2500000   0.2500000   0.0000000), wk =   0.0833333
        k(   18) = (   0.2500000   0.3333333   0.0000000), wk =   0.1666667
        k(   19) = (   0.3333333   0.3333333   0.0000000), wk =   0.0277778

     Dense  grid:    67863 G-vectors     FFT dimensions: (  27,  27, 216)

     Dynamical RAM for                 wfc:       0.19 MB

     Dynamical RAM for     wfc (w. buffer):       3.89 MB

     Dynamical RAM for           str. fact:       0.13 MB

     Dynamical RAM for           local pot:       0.00 MB

     Dynamical RAM for          nlocal pot:       0.52 MB

     Dynamical RAM for                qrad:       0.82 MB

     Dynamical RAM for          rho,v,vnew:       0.84 MB

     Dynamical RAM for               rhoin:       0.28 MB

     Dynamical RAM for            rho*nmix:       2.07 MB

     Dynamical RAM for           G-vectors:       0.55 MB

     Dynamical RAM for          h,s,v(r/c):       0.03 MB

     Dynamical RAM for          <psi|beta>:       0.01 MB

     Dynamical RAM for                 psi:       0.39 MB

     Dynamical RAM for                hpsi:       0.39 MB

     Dynamical RAM for      wfcinit/wfcrot:       0.52 MB

     Estimated static dynamical RAM per process >       8.03 MB

     Estimated max dynamical RAM per process >      10.91 MB

     Estimated total dynamical RAM >      87.30 MB

     Initial potential from superposition of free atoms

     starting charge      15.9998, renormalised to      16.0000

     negative rho (up, down):  2.745E-05 0.000E+00
     Starting wfcs are   16 randomized atomic wfcs

     total cpu time spent up to now is        0.9 secs

     Self-consistent Calculation

     iteration #  1     ecut=    80.00 Ry     beta= 0.70
     Davidson diagonalization with overlap

---- Real-time Memory Report at c_bands before calling an iterative solver
             0 MiB given to the printing process from OS
             0 MiB allocation reported by mallinfo(arena+hblkhd)
             0 MiB available memory on the node where the printing process lives
------------------
     ethr =  1.00E-02,  avg # of iterations =  3.5

     total cpu time spent up to now is        1.8 secs

     total energy              =     -48.14803310 Ry
     estimated scf accuracy    <       0.34593614 Ry

     iteration #  2     ecut=    80.00 Ry     beta= 0.70
     Davidson diagonalization with overlap

---- Real-time Memory Report at c_bands before calling an iterative solver
             0 MiB given to the printing process from OS
             0 MiB allocation reported by mallinfo(arena+hblkhd)
             0 MiB available memory on the node where the printing process lives
------------------
     ethr =  2.16E-03,  avg # of iterations =  4.4

     total cpu time spent up to now is        2.5 secs

     total energy              =     -48.18661313 Ry
     estimated scf accuracy    <       0.00510921 Ry

     iteration #  3     ecut=    80.00 Ry     beta= 0.70
     Davidson diagonalization with overlap

---- Real-time Memory Report at c_bands before calling an iterative solver
             0 MiB given to the printing process from OS
             0 MiB allocation reported by mallinfo(arena+hblkhd)
             0 MiB available memory on the node where the printing process lives
------------------
     c_bands:  1 eigenvalues not converged
     ethr =  3.19E-05,  avg # of iterations = 11.8

     total cpu time spent up to now is        3.9 secs

     total energy              =     -48.18826671 Ry
     estimated scf accuracy    <       0.00106339 Ry

     iteration #  4     ecut=    80.00 Ry     beta= 0.70
     Davidson diagonalization with overlap

---- Real-time Memory Report at c_bands before calling an iterative solver
             0 MiB given to the printing process from OS
             0 MiB allocation reported by mallinfo(arena+hblkhd)
             0 MiB available memory on the node where the printing process lives
------------------
     ethr =  6.65E-06,  avg # of iterations =  6.5

     total cpu time spent up to now is        5.0 secs

     total energy              =     -48.18830094 Ry
     estimated scf accuracy    <       0.00109869 Ry

     iteration #  5     ecut=    80.00 Ry     beta= 0.70
     Davidson diagonalization with overlap

---- Real-time Memory Report at c_bands before calling an iterative solver
             0 MiB given to the printing process from OS
             0 MiB allocation reported by mallinfo(arena+hblkhd)
             0 MiB available memory on the node where the printing process lives
------------------
     ethr =  6.65E-06,  avg # of iterations =  5.2

     total cpu time spent up to now is        5.8 secs

     WARNING: integrated charge=    16.00002586, expected=    16.00000000

     total energy              =     -48.18854481 Ry
     estimated scf accuracy    <       0.00215053 Ry

     iteration #  6     ecut=    80.00 Ry     beta= 0.70
     Davidson diagonalization with overlap

---- Real-time Memory Report at c_bands before calling an iterative solver
             0 MiB given to the printing process from OS
             0 MiB allocation reported by mallinfo(arena+hblkhd)
             0 MiB available memory on the node where the printing process lives
------------------
     ethr =  6.65E-06,  avg # of iterations =  3.6

     total cpu time spent up to now is        6.5 secs

     WARNING: integrated charge=    16.00000784, expected=    16.00000000

     total energy              =     -48.18863577 Ry
     estimated scf accuracy    <       0.00014055 Ry

     iteration #  7     ecut=    80.00 Ry     beta= 0.70
     Davidson diagonalization with overlap

---- Real-time Memory Report at c_bands before calling an iterative solver
             0 MiB given to the printing process from OS
             0 MiB allocation reported by mallinfo(arena+hblkhd)
             0 MiB available memory on the node where the printing process lives
------------------
     ethr =  8.78E-07,  avg # of iterations =  2.5

     total cpu time spent up to now is        7.2 secs

     WARNING: integrated charge=    15.99999808, expected=    16.00000000

     total energy              =     -48.18864361 Ry
     estimated scf accuracy    <       0.00000244 Ry

     iteration #  8     ecut=    80.00 Ry     beta= 0.70
     Davidson diagonalization with overlap

---- Real-time Memory Report at c_bands before calling an iterative solver
             0 MiB given to the printing process from OS
             0 MiB allocation reported by mallinfo(arena+hblkhd)
             0 MiB available memory on the node where the printing process lives
------------------
     ethr =  1.53E-08,  avg # of iterations =  2.5

     total cpu time spent up to now is        8.0 secs

     WARNING: integrated charge=    16.00000219, expected=    16.00000000

     total energy              =     -48.18864352 Ry
     estimated scf accuracy    <       0.00000740 Ry

     iteration #  9     ecut=    80.00 Ry     beta= 0.70
     Davidson diagonalization with overlap

---- Real-time Memory Report at c_bands before calling an iterative solver
             0 MiB given to the printing process from OS
             0 MiB allocation reported by mallinfo(arena+hblkhd)
             0 MiB available memory on the node where the printing process lives
------------------
     ethr =  1.53E-08,  avg # of iterations =  1.6

     total cpu time spent up to now is        8.6 secs

     total energy              =     -48.18864454 Ry
     estimated scf accuracy    <       0.00000231 Ry

     iteration # 10     ecut=    80.00 Ry     beta= 0.70
     Davidson diagonalization with overlap

---- Real-time Memory Report at c_bands before calling an iterative solver
             0 MiB given to the printing process from OS
             0 MiB allocation reported by mallinfo(arena+hblkhd)
             0 MiB available memory on the node where the printing process lives
------------------
     ethr =  1.44E-08,  avg # of iterations =  1.0

     total cpu time spent up to now is        9.3 secs

     End of self-consistent calculation

          k = 0.0000 0.0000 0.0000 (  8603 PWs)   bands (ev):

   -20.0392 -19.8713  -8.5572  -7.5136  -3.4988  -3.4988  -3.4879  -3.4878
     3.0105   3.3953   4.1723   5.3661

     occupation numbers 
     1.0000   1.0000   1.0000   1.0000   1.0000   1.0000   1.0000   1.0000
     0.0000   0.0000   0.0000   0.0000

          k = 0.0000 0.0962 0.0000 (  8567 PWs)   bands (ev):

   -19.8748 -19.7085  -8.3586  -7.3216  -4.1543  -4.1348  -3.8402  -3.8237
     3.2313   3.6181   4.3980   5.5898

     occupation numbers 
     1.0000   1.0000   1.0000   1.0000   1.0000   1.0000   1.0000   1.0000
     0.0000   0.0000   0.0000   0.0000

          k = 0.0000 0.1925 0.0000 (  8545 PWs)   bands (ev):

   -19.3834 -19.2220  -7.7674  -6.7514  -5.8017  -5.7649  -4.6370  -4.6137
     3.8932   4.2852   5.0749   6.2593

     occupation numbers 
     1.0000   1.0000   1.0000   1.0000   1.0000   1.0000   1.0000   1.0000
     0.0000   0.0000   0.0000   0.0000

          k = 0.0000 0.2887 0.0000 (  8492 PWs)   bands (ev):

   -18.5707 -18.4175  -7.9105  -7.8540  -6.8007  -5.8246  -5.5207  -5.4930
     4.9924   5.3804   6.2008   6.6077

     occupation numbers 
     1.0000   1.0000   1.0000   1.0000   1.0000   1.0000   1.0000   1.0000
     0.0000   0.0000   0.0000   0.0000

          k = 0.0000 0.3849 0.0000 (  8472 PWs)   bands (ev):

   -17.4488 -17.3067 -10.1227 -10.0470  -6.2572  -6.2270  -5.5028  -4.6002
     4.2156   4.7080   6.5147   6.9441

     occupation numbers 
     1.0000   1.0000   1.0000   1.0000   1.0000   1.0000   1.0000   1.0000
     0.0000   0.0000   0.0000   0.0000

          k = 0.0000 0.4811 0.0000 (  8484 PWs)   bands (ev):

   -16.0483 -15.9217 -12.2289 -12.1372  -6.7320  -6.7006  -4.0109  -3.2771
     2.0772   2.6155   6.9531   7.1632

     occupation numbers 
     1.0000   1.0000   1.0000   1.0000   1.0000   1.0000   1.0000   1.0000
     0.0000   0.0000   0.0000   0.0000

          k = 0.0000-0.5774 0.0000 (  8450 PWs)   bands (ev):

   -14.7613 -14.6977 -13.7055 -13.6577  -6.8951  -6.8632  -3.0209  -2.6347
     1.0949   1.4630   6.8663   7.0877

     occupation numbers 
     1.0000   1.0000   1.0000   1.0000   1.0000   1.0000   1.0000   1.0000
     0.0000   0.0000   0.0000   0.0000

          k = 0.0833 0.1443 0.0000 (  8561 PWs)   bands (ev):

   -19.5469 -19.3839  -7.9636  -6.9403  -5.1893  -5.1705  -4.5161  -4.5022
     3.6729   4.0633   4.8494   6.0370

     occupation numbers 
     1.0000   1.0000   1.0000   1.0000   1.0000   1.0000   1.0000   1.0000
     0.0000   0.0000   0.0000   0.0000

          k = 0.0833 0.2406 0.0000 (  8508 PWs)   bands (ev):

   -18.8948 -18.7384  -7.1840  -6.9100  -6.8712  -6.1903  -5.5207  -5.4953
     4.5547   4.9499   5.7521   6.9254

     occupation numbers 
     1.0000   1.0000   1.0000   1.0000   1.0000   1.0000   1.0000   1.0000
     0.0000   0.0000   0.0000   0.0000

          k = 0.0833 0.3368 0.0000 (  8491 PWs)   bands (ev):

   -17.9274 -17.7806  -8.9947  -8.9321  -6.4130  -6.3791  -6.0460  -5.1067
     5.2691   5.6581   5.8751   6.2997

     occupation numbers 
     1.0000   1.0000   1.0000   1.0000   1.0000   1.0000   1.0000   1.0000
     0.0000   0.0000   0.0000   0.0000

          k = 0.0833 0.4330 0.0000 (  8467 PWs)   bands (ev):

   -16.6632 -16.5293 -11.1258 -11.0435  -7.0513  -7.0135  -4.6234  -3.7894
     3.0298   3.5264   7.5743   7.7739

     occupation numbers 
     1.0000   1.0000   1.0000   1.0000   1.0000   1.0000   1.0000   1.0000
     0.0000   0.0000   0.0000   0.0000

          k = 0.0833 0.5292 0.0000 (  8469 PWs)   bands (ev):

   -15.1765 -15.0655 -13.0677 -12.9773  -7.3813  -7.3420  -3.1978  -2.6466
     1.3250   1.7517   7.5978   7.8276

     occupation numbers 
     1.0000   1.0000   1.0000   1.0000   1.0000   1.0000   1.0000   1.0000
     0.0000   0.0000   0.0000   0.0000

          k = 0.1667 0.2887 0.0000 (  8483 PWs)   bands (ev):

   -18.0880 -17.9396  -8.2393  -8.2080  -6.8794  -6.8566  -6.2295  -5.2786
     5.6523   5.7780   6.0209   6.0719

     occupation numbers 
     1.0000   1.0000   1.0000   1.0000   1.0000   1.0000   1.0000   1.0000
     0.0000   0.0000   0.0000   0.0000

          k = 0.1667 0.3849 0.0000 (  8505 PWs)   bands (ev):

   -16.9769 -16.8397  -9.9794  -9.9204  -7.9456  -7.9048  -4.9462  -4.0693
     3.7996   4.1433   7.1801   7.5737

     occupation numbers 
     1.0000   1.0000   1.0000   1.0000   1.0000   1.0000   1.0000   1.0000
     0.0000   0.0000   0.0000   0.0000

          k = 0.1667 0.4811 0.0000 (  8491 PWs)   bands (ev):

   -15.5964 -15.4747 -11.8989 -11.8160  -8.5284  -8.4769  -3.4556  -2.7335
     1.8721   2.2805   9.0912   9.3594

     occupation numbers 
     1.0000   1.0000   1.0000   1.0000   1.0000   1.0000   1.0000   1.0000
     0.0000   0.0000   0.0000   0.0000

          k = 0.1667 0.5774 0.0000 (  8478 PWs)   bands (ev):

   -14.3393 -14.2783 -13.3057 -13.2637  -8.7150  -8.6610  -2.4224  -2.0424
     0.9525   1.1278   9.3533   9.6503

     occupation numbers 
     1.0000   1.0000   1.0000   1.0000   1.0000   1.0000   1.0000   1.0000
     0.0000   0.0000   0.0000   0.0000

          k = 0.2500 0.4330 0.0000 (  8483 PWs)   bands (ev):

   -15.7448 -15.6208 -11.0094 -10.9660  -9.4202  -9.3882  -3.5611  -2.7859
     2.1961   2.5250   8.8910   9.1791

     occupation numbers 
     1.0000   1.0000   1.0000   1.0000   1.0000   1.0000   1.0000   1.0000
     0.0000   0.0000   0.0000   0.0000

          k = 0.2500 0.5292 0.0000 (  8484 PWs)   bands (ev):

   -14.3154 -14.2138 -12.4393 -12.3707 -10.1392 -10.0855  -2.0864  -1.5310
     0.7100   1.0077  10.3215  10.5605

     occupation numbers 
     1.0000   1.0000   1.0000   1.0000   1.0000   1.0000   1.0000   1.0000
     0.0000   0.0000   0.0000   0.0000

          k = 0.3333 0.5774 0.0000 (  8478 PWs)   bands (ev):

   -13.1061 -13.0507 -13.0487 -12.9987 -11.0022 -11.0004  -0.8091  -0.4554
    -0.4534  -0.0763  10.1799  10.1810

     occupation numbers 
     1.0000   1.0000   1.0000   1.0000   1.0000   1.0000   1.0000   0.5105
     0.4895   0.0000   0.0000   0.0000

     the Fermi energy is    -0.4449 ev

!    total energy              =     -48.18864424 Ry
     estimated scf accuracy    <       0.00000038 Ry
     smearing contrib. (-TS)   =      -0.00004556 Ry
     internal energy E=F+TS    =     -48.18859868 Ry

     The total energy is F=E-TS. E is the sum of the following terms:
     one-electron contribution =    -529.21585944 Ry
     hartree contribution      =     268.35801694 Ry
     xc contribution           =     -17.15694423 Ry
     ewald contribution        =     229.82618804 Ry

     convergence has been achieved in  10 iterations

     Forces acting on atoms (cartesian axes, Ry/au):

     atom    1 type  1   force =     0.00000000   -0.00000000   -0.00188941
     atom    2 type  1   force =     0.00000000   -0.00000000    0.00189069
     atom    3 type  1   force =     0.00000000    0.00000000   -0.00302742
     atom    4 type  1   force =     0.00000000    0.00000000    0.00302613
     The non-local contrib.  to forces
     atom    1 type  1   force =     0.00000000    0.00000000   -0.00101356
     atom    2 type  1   force =    -0.00000000    0.00000000    0.00099660
     atom    3 type  1   force =     0.00000000    0.00000000   -0.00269251
     atom    4 type  1   force =     0.00000000   -0.00000000    0.00266756
     The ionic contribution  to forces
     atom    1 type  1   force =     0.00000851   -0.00000491  -14.19328446
     atom    2 type  1   force =    -0.00000851    0.00000491   14.19328446
     atom    3 type  1   force =    -0.00000852    0.00000492  -14.18753220
     atom    4 type  1   force =     0.00000852   -0.00000492   14.18753220
     The local contribution  to forces
     atom    1 type  1   force =    -0.00000000    0.00000000   14.19168946
     atom    2 type  1   force =    -0.00000000   -0.00000000  -14.19301253
     atom    3 type  1   force =    -0.00000678    0.00000391   14.18640489
     atom    4 type  1   force =     0.00000677   -0.00000391  -14.18772311
     The core correction contribution to forces
     atom    1 type  1   force =    -0.00000000    0.00000000    0.00006140
     atom    2 type  1   force =     0.00000000   -0.00000000   -0.00006160
     atom    3 type  1   force =     0.00000050   -0.00000029    0.00013406
     atom    4 type  1   force =    -0.00000050    0.00000029   -0.00013392
     The Hubbard contrib.    to forces
     atom    1 type  1   force =     0.00000000    0.00000000    0.00000000
     atom    2 type  1   force =     0.00000000    0.00000000    0.00000000
     atom    3 type  1   force =     0.00000000    0.00000000    0.00000000
     atom    4 type  1   force =     0.00000000    0.00000000    0.00000000
     The SCF correction term to forces
     atom    1 type  1   force =    -0.00000000    0.00000000    0.00000000
     atom    2 type  1   force =     0.00000000   -0.00000000    0.00068175
     atom    3 type  1   force =     0.00000000   -0.00000000    0.00000000
     atom    4 type  1   force =     0.00000000   -0.00000000    0.00068140

     Total force =     0.003568     Total SCF correction =     0.000964
     SCF correction compared to forces is large: reduce conv_thr to get better values


     Computing stress (Cartesian axis) and pressure

          total   stress  (Ry/bohr**3)                   (kbar)     P=       -1.15
  -0.00003111   0.00000000   0.00000000           -4.58        0.00        0.00
   0.00000000  -0.00003111   0.00000000            0.00       -4.58        0.00
   0.00000000   0.00000000   0.00003876            0.00        0.00        5.70

     kinetic stress (kbar)   4520.28      0.00      0.00
                                0.00   4520.28     -0.00
                                0.00     -0.00   5000.15

     local   stress (kbar)-115170.40      0.00     -0.00
                                0.00-115170.39      0.00
                               -0.00      0.00 116518.71

     nonloc. stress (kbar)   -458.96      0.00      0.00
                                0.00   -458.96     -0.00
                                0.00     -0.00   -387.68

     hartree stress (kbar)  55798.32     -0.00     -0.00
                               -0.00  55798.32     -0.00
                               -0.00     -0.00 -55451.18

     exc-cor stress (kbar)   -358.66     -0.00      0.00
                               -0.00   -358.66     -0.00
                                0.00     -0.00   -399.74

     corecor stress (kbar)   -681.61      0.00      0.00
                                0.00   -681.61     -0.00
                                0.00     -0.00   -665.58

     ewald   stress (kbar)  56346.45     -0.01      0.00
                               -0.01  56346.44     -0.00
                                0.00     -0.00 -64608.99

     hubbard stress (kbar)      0.00      0.00      0.00
                                0.00      0.00      0.00
                                0.00      0.00      0.00

     DFT-D   stress (kbar)      0.00      0.00      0.00
                                0.00      0.00      0.00
                                0.00      0.00      0.00

     XDM     stress (kbar)      0.00      0.00      0.00
                                0.00      0.00      0.00
                                0.00      0.00      0.00

     dft-nl  stress (kbar)      0.00      0.00      0.00
                                0.00      0.00      0.00
                                0.00      0.00      0.00

     TS-vdW  stress (kbar)      0.00      0.00      0.00
                                0.00      0.00      0.00
                                0.00      0.00      0.00

     MDB     stress (kbar)      0.00      0.00      0.00
                                0.00      0.00      0.00
                                0.00      0.00      0.00

     3D-RISM stress (kbar)      0.00      0.00      0.00
                                0.00      0.00      0.00
                                0.00      0.00      0.00


     BFGS Geometry Optimization
     Energy error            =      0.0E+00 Ry
     Gradient error          =      3.0E-03 Ry/Bohr
     Cell gradient error     =      5.7E+00 kbar

     number of scf cycles    =   1
     number of bfgs steps    =   0

     enthalpy           new  =     -48.1886442440 Ry

     new trust radius        =       0.0051386718 bohr
     new conv_thr            =       0.0000010000 Ry

     new unit-cell volume =    702.70400 a.u.^3 (   104.12999 Ang^3 )
     density =      0.76615 g/cm^3

CELL_PARAMETERS (alat=  4.66447000)
   0.999222353   0.000000000   0.000000000
  -0.499611176   0.865351942   0.000000000
   0.000000000   0.000000000   8.007751703

ATOMIC_POSITIONS (crystal)
C             0.0000000000        0.0000000000        0.0000000000    0   0   0
C             0.0000000000        0.0000000000        0.1675676674    0   0   1
C             0.6666670000        0.3333330000        0.0000000000    0   0   0
C             0.3333330000        0.6666670000        0.1675980953    0   0   1



     Writing config-only to output data dir ./tmp/C2L_AB_PBE.save/
     NEW-OLD atomic charge density approx. for the potential

     negative rho (up, down):  4.692E-07 0.000E+00
     extrapolated charge   15.99060, renormalised to   16.00000

     total cpu time spent up to now is       10.9 secs

     Self-consistent Calculation

     iteration #  1     ecut=    80.00 Ry     beta= 0.70
     Davidson diagonalization with overlap

---- Real-time Memory Report at c_bands before calling an iterative solver
             0 MiB given to the printing process from OS
             0 MiB allocation reported by mallinfo(arena+hblkhd)
             0 MiB available memory on the node where the printing process lives
------------------
     ethr =  1.00E-06,  avg # of iterations =  7.1

     negative rho (up, down):  9.181E-08 0.000E+00

     total cpu time spent up to now is       12.0 secs

     total energy              =     -48.18854857 Ry
     estimated scf accuracy    <       0.00014057 Ry

     iteration #  2     ecut=    80.00 Ry     beta= 0.70
     Davidson diagonalization with overlap

---- Real-time Memory Report at c_bands before calling an iterative solver
             0 MiB given to the printing process from OS
             0 MiB allocation reported by mallinfo(arena+hblkhd)
             0 MiB available memory on the node where the printing process lives
------------------
     ethr =  8.79E-07,  avg # of iterations =  7.5

     negative rho (up, down):  7.159E-08 0.000E+00

     total cpu time spent up to now is       13.2 secs

     WARNING: integrated charge=    16.00029326, expected=    16.00000000

     total energy              =     -48.18862686 Ry
     estimated scf accuracy    <       0.00181501 Ry

     iteration #  3     ecut=    80.00 Ry     beta= 0.70
     Davidson diagonalization with overlap

---- Real-time Memory Report at c_bands before calling an iterative solver
             0 MiB given to the printing process from OS
             0 MiB allocation reported by mallinfo(arena+hblkhd)
             0 MiB available memory on the node where the printing process lives
------------------
     ethr =  8.79E-07,  avg # of iterations =  5.3

     negative rho (up, down):  5.287E-08 0.000E+00

     total cpu time spent up to now is       14.2 secs

     WARNING: integrated charge=    16.00027080, expected=    16.00000000

     total energy              =     -48.18869249 Ry
     estimated scf accuracy    <       0.00023363 Ry

     iteration #  4     ecut=    80.00 Ry     beta= 0.70
     Davidson diagonalization with overlap

---- Real-time Memory Report at c_bands before calling an iterative solver
             0 MiB given to the printing process from OS
             0 MiB allocation reported by mallinfo(arena+hblkhd)
             0 MiB available memory on the node where the printing process lives
------------------
     ethr =  8.79E-07,  avg # of iterations =  1.3

     negative rho (up, down):  2.503E-08 0.000E+00

     total cpu time spent up to now is       14.8 secs

     WARNING: integrated charge=    16.00000917, expected=    16.00000000

     total energy              =     -48.18870342 Ry
     estimated scf accuracy    <       0.00005631 Ry

     iteration #  5     ecut=    80.00 Ry     beta= 0.70
     Davidson diagonalization with overlap

---- Real-time Memory Report at c_bands before calling an iterative solver
             0 MiB given to the printing process from OS
             0 MiB allocation reported by mallinfo(arena+hblkhd)
             0 MiB available memory on the node where the printing process lives
------------------
     ethr =  3.52E-07,  avg # of iterations =  1.1

     total cpu time spent up to now is       15.4 secs

     WARNING: integrated charge=    15.99997476, expected=    16.00000000

     total energy              =     -48.18870481 Ry
     estimated scf accuracy    <       0.00001024 Ry

     iteration #  6     ecut=    80.00 Ry     beta= 0.70
     Davidson diagonalization with overlap

---- Real-time Memory Report at c_bands before calling an iterative solver
             0 MiB given to the printing process from OS
             0 MiB allocation reported by mallinfo(arena+hblkhd)
             0 MiB available memory on the node where the printing process lives
------------------
     ethr =  6.40E-08,  avg # of iterations =  1.4

     total cpu time spent up to now is       16.1 secs

     WARNING: integrated charge=    15.99998260, expected=    16.00000000

     total energy              =     -48.18870434 Ry
     estimated scf accuracy    <       0.00000292 Ry

     iteration #  7     ecut=    80.00 Ry     beta= 0.70
     Davidson diagonalization with overlap

---- Real-time Memory Report at c_bands before calling an iterative solver
             0 MiB given to the printing process from OS
             0 MiB allocation reported by mallinfo(arena+hblkhd)
             0 MiB available memory on the node where the printing process lives
------------------
     ethr =  1.82E-08,  avg # of iterations =  2.0

     total cpu time spent up to now is       16.7 secs

     End of self-consistent calculation

          k = 0.0000 0.0000 0.0000 (  8603 PWs)   bands (ev):

   -20.0479 -19.8819  -8.5605  -7.5247  -3.4886  -3.4885  -3.4780  -3.4780
     3.0092   3.3942   4.1700   5.3613

     occupation numbers 
     1.0000   1.0000   1.0000   1.0000   1.0000   1.0000   1.0000   1.0000
     0.0000   0.0000   0.0000   0.0000

          k = 0.0000 0.0963 0.0000 (  8567 PWs)   bands (ev):

   -19.8833 -19.7190  -8.3615  -7.3322  -4.1446  -4.1255  -3.8308  -3.8147
     3.2303   3.6174   4.3960   5.5853

     occupation numbers 
     1.0000   1.0000   1.0000   1.0000   1.0000   1.0000   1.0000   1.0000
     0.0000   0.0000   0.0000   0.0000

          k = 0.0000 0.1926 0.0000 (  8545 PWs)   bands (ev):

   -19.3912 -19.2318  -7.7692  -6.7608  -5.7937  -5.7574  -4.6295  -4.6066
     3.8932   4.2856   5.0740   6.2560

     occupation numbers 
     1.0000   1.0000   1.0000   1.0000   1.0000   1.0000   1.0000   1.0000
     0.0000   0.0000   0.0000   0.0000

          k = 0.0000 0.2889 0.0000 (  8492 PWs)   bands (ev):

   -18.5774 -18.4260  -7.9049  -7.8492  -6.8008  -5.8320  -5.5151  -5.4879
     4.9941   5.3829   6.2017   6.6332

     occupation numbers 
     1.0000   1.0000   1.0000   1.0000   1.0000   1.0000   1.0000   1.0000
     0.0000   0.0000   0.0000   0.0000

          k = 0.0000 0.3852 0.0000 (  8472 PWs)   bands (ev):

   -17.4539 -17.3136 -10.1199 -10.0453  -6.2531  -6.2234  -5.5005  -4.6047
     4.2359   4.7244   6.5192   6.9500

     occupation numbers 
     1.0000   1.0000   1.0000   1.0000   1.0000   1.0000   1.0000   1.0000
     0.0000   0.0000   0.0000   0.0000

          k = 0.0000 0.4815 0.0000 (  8484 PWs)   bands (ev):

   -16.0512 -15.9261 -12.2293 -12.1387  -6.7288  -6.6980  -4.0059  -3.2776
     2.0919   2.6264   6.9862   7.1940

     occupation numbers 
     1.0000   1.0000   1.0000   1.0000   1.0000   1.0000   1.0000   1.0000
     0.0000   0.0000   0.0000   0.0000

          k = 0.0000-0.5778 0.0000 (  8450 PWs)   bands (ev):

   -14.7599 -14.6971 -13.7111 -13.6639  -6.8922  -6.8610  -3.0146  -2.6314
     1.1054   1.4714   6.8997   7.1189

     occupation numbers 
     1.0000   1.0000   1.0000   1.0000   1.0000   1.0000   1.0000   1.0000
     0.0000   0.0000   0.0000   0.0000

          k = 0.0834 0.1444 0.0000 (  8561 PWs)   bands (ev):

   -19.5550 -19.3939  -7.9658  -6.9501  -5.1805  -5.1621  -4.5083  -4.4948
     3.6725   4.0633   4.8481   6.0333

     occupation numbers 
     1.0000   1.0000   1.0000   1.0000   1.0000   1.0000   1.0000   1.0000
     0.0000   0.0000   0.0000   0.0000

          k = 0.0834 0.2407 0.0000 (  8508 PWs)   bands (ev):

   -18.9020 -18.7474  -7.1847  -6.9030  -6.8648  -6.1985  -5.5150  -5.4901
     4.5557   4.9514   5.7522   6.9235

     occupation numbers 
     1.0000   1.0000   1.0000   1.0000   1.0000   1.0000   1.0000   1.0000
     0.0000   0.0000   0.0000   0.0000

          k = 0.0834 0.3370 0.0000 (  8491 PWs)   bands (ev):

   -17.9332 -17.7882  -8.9902  -8.9285  -6.4089  -6.3756  -6.0447  -5.1125
     5.2916   5.6777   5.8783   6.3038

     occupation numbers 
     1.0000   1.0000   1.0000   1.0000   1.0000   1.0000   1.0000   1.0000
     0.0000   0.0000   0.0000   0.0000

          k = 0.0834 0.4333 0.0000 (  8467 PWs)   bands (ev):

   -16.6672 -16.5350 -11.1243 -11.0430  -7.0483  -7.0112  -4.6195  -3.7917
     3.0473   3.5403   7.5835   7.8030

     occupation numbers 
     1.0000   1.0000   1.0000   1.0000   1.0000   1.0000   1.0000   1.0000
     0.0000   0.0000   0.0000   0.0000

          k = 0.0834 0.5296 0.0000 (  8469 PWs)   bands (ev):

   -15.1775 -15.0678 -13.0700 -12.9806  -7.3789  -7.3403  -3.1916  -2.6444
     1.3371   1.7611   7.6318   7.8595

     occupation numbers 
     1.0000   1.0000   1.0000   1.0000   1.0000   1.0000   1.0000   1.0000
     0.0000   0.0000   0.0000   0.0000

          k = 0.1668 0.2889 0.0000 (  8483 PWs)   bands (ev):

   -18.0941 -17.9475  -8.2330  -8.2023  -6.8768  -6.8544  -6.2285  -5.2848
     5.6548   5.8023   6.0352   6.0828

     occupation numbers 
     1.0000   1.0000   1.0000   1.0000   1.0000   1.0000   1.0000   1.0000
     0.0000   0.0000   0.0000   0.0000

          k = 0.1668 0.3852 0.0000 (  8505 PWs)   bands (ev):

   -16.9814 -16.8459  -9.9753  -9.9171  -7.9445  -7.9042  -4.9429  -4.0726
     3.8193   4.1603   7.1851   7.5796

     occupation numbers 
     1.0000   1.0000   1.0000   1.0000   1.0000   1.0000   1.0000   1.0000
     0.0000   0.0000   0.0000   0.0000

          k = 0.1668 0.4815 0.0000 (  8491 PWs)   bands (ev):

   -15.5987 -15.4784 -11.8982 -11.8163  -8.5278  -8.4770  -3.4496  -2.7329
     1.8870   2.2925   9.1005   9.3840

     occupation numbers 
     1.0000   1.0000   1.0000   1.0000   1.0000   1.0000   1.0000   1.0000
     0.0000   0.0000   0.0000   0.0000

          k = 0.1668 0.5778 0.0000 (  8478 PWs)   bands (ev):

   -14.3376 -14.2774 -13.3099 -13.2684  -8.7145  -8.6613  -2.4149  -2.0379
     0.9631   1.1378   9.3890   9.6843

     occupation numbers 
     1.0000   1.0000   1.0000   1.0000   1.0000   1.0000   1.0000   1.0000
     0.0000   0.0000   0.0000   0.0000

          k = 0.2502 0.4333 0.0000 (  8483 PWs)   bands (ev):

   -15.7475 -15.6249 -11.0053 -10.9626  -9.4228  -9.3913  -3.5553  -2.7858
     2.2124   2.5386   8.8990   9.1885

     occupation numbers 
     1.0000   1.0000   1.0000   1.0000   1.0000   1.0000   1.0000   1.0000
     0.0000   0.0000   0.0000   0.0000

          k = 0.2502 0.5296 0.0000 (  8484 PWs)   bands (ev):

   -14.3152 -14.2149 -12.4382 -12.3704 -10.1426 -10.0894  -2.0779  -1.5267
     0.7225   1.0178  10.3362  10.5724

     occupation numbers 
     1.0000   1.0000   1.0000   1.0000   1.0000   1.0000   1.0000   1.0000
     0.0000   0.0000   0.0000   0.0000

          k = 0.3336 0.5778 0.0000 (  8478 PWs)   bands (ev):

   -13.1032 -13.0477 -13.0475 -12.9972 -11.0095 -11.0093  -0.7972  -0.4454
    -0.4451  -0.0703  10.1917  10.1922

     occupation numbers 
     1.0000   1.0000   1.0000   1.0000   1.0000   1.0000   1.0000   0.5017
     0.4983   0.0000   0.0000   0.0000

     the Fermi energy is    -0.4357 ev

!    total energy              =     -48.18870468 Ry
     estimated scf accuracy    <       0.00000011 Ry
     smearing contrib. (-TS)   =      -0.00004558 Ry
     internal energy E=F+TS    =     -48.18865910 Ry

     The total energy is F=E-TS. E is the sum of the following terms:
     one-electron contribution =    -530.50364119 Ry
     hartree contribution      =     269.00350329 Ry
     xc contribution           =     -17.16384211 Ry
     ewald contribution        =     230.47532090 Ry

     convergence has been achieved in   7 iterations

     Forces acting on atoms (cartesian axes, Ry/au):

     atom    1 type  1   force =     0.00000000   -0.00000000   -0.00191219
     atom    2 type  1   force =     0.00000000    0.00000000    0.00230598
     atom    3 type  1   force =     0.00000000    0.00000000   -0.00304955
     atom    4 type  1   force =     0.00000000   -0.00000000    0.00265576
     The non-local contrib.  to forces
     atom    1 type  1   force =     0.00000000    0.00000000   -0.00094385
     atom    2 type  1   force =     0.00000000    0.00000000    0.00169332
     atom    3 type  1   force =     0.00000000    0.00000000   -0.00261948
     atom    4 type  1   force =     0.00000000   -0.00000000    0.00185244
     The ionic contribution  to forces
     atom    1 type  1   force =     0.00000852   -0.00000492  -14.21253378
     atom    2 type  1   force =    -0.00000852    0.00000492   14.20551548
     atom    3 type  1   force =    -0.00000854    0.00000493  -14.20688631
     atom    4 type  1   force =     0.00000854   -0.00000493   14.21390460
     The local contribution  to forces
     atom    1 type  1   force =     0.00000000    0.00000000   14.21073628
     atom    2 type  1   force =     0.00000000   -0.00000000  -14.20434834
     atom    3 type  1   force =    -0.00000676    0.00000390   14.20555612
     atom    4 type  1   force =     0.00000676   -0.00000390  -14.21248920
     The core correction contribution to forces
     atom    1 type  1   force =    -0.00000000    0.00000000    0.00005351
     atom    2 type  1   force =     0.00000000   -0.00000000   -0.00006247
     atom    3 type  1   force =     0.00000050   -0.00000029    0.00012609
     atom    4 type  1   force =    -0.00000050    0.00000029   -0.00011813
     The Hubbard contrib.    to forces
     atom    1 type  1   force =     0.00000000    0.00000000    0.00000000
     atom    2 type  1   force =     0.00000000    0.00000000    0.00000000
     atom    3 type  1   force =     0.00000000    0.00000000    0.00000000
     atom    4 type  1   force =     0.00000000    0.00000000    0.00000000
     The SCF correction term to forces
     atom    1 type  1   force =     0.00000000   -0.00000000    0.00000000
     atom    2 type  1   force =    -0.00000000    0.00000000   -0.00050274
     atom    3 type  1   force =    -0.00000000    0.00000000    0.00000000
     atom    4 type  1   force =     0.00000000   -0.00000000   -0.00050467

     Total force =     0.003517     Total SCF correction =     0.000712
     SCF correction compared to forces is large: reduce conv_thr to get better values


     Computing stress (Cartesian axis) and pressure

          total   stress  (Ry/bohr**3)                   (kbar)     P=        0.96
  -0.00000879   0.00000000   0.00000000           -1.29        0.00        0.00
   0.00000000  -0.00000879   0.00000000            0.00       -1.29        0.00
   0.00000000   0.00000000   0.00003719            0.00        0.00        5.47

     kinetic stress (kbar)   4527.21     -0.00      0.00
                                0.00   4527.21      0.00
                                0.00      0.00   5005.38

     local   stress (kbar)-115515.30      0.00     -0.00
                                0.00-115515.30      0.00
                               -0.00      0.00 116870.63

     nonloc. stress (kbar)   -460.40      0.00      0.00
                                0.00   -460.40     -0.00
                                0.00     -0.00   -388.55

     hartree stress (kbar)  55966.74     -0.00     -0.00
                               -0.00  55966.74     -0.00
                               -0.00     -0.00 -55619.90

     exc-cor stress (kbar)   -359.24     -0.00      0.00
                               -0.00   -359.24     -0.00
                                0.00     -0.00   -400.40

     corecor stress (kbar)   -682.15      0.00      0.00
                                0.00   -682.15     -0.00
                                0.00     -0.00   -666.04

     ewald   stress (kbar)  56521.85     -0.01      0.00
                               -0.01  56521.84     -0.00
                                0.00     -0.00 -64795.65

     hubbard stress (kbar)      0.00      0.00      0.00
                                0.00      0.00      0.00
                                0.00      0.00      0.00

     DFT-D   stress (kbar)      0.00      0.00      0.00
                                0.00      0.00      0.00
                                0.00      0.00      0.00

     XDM     stress (kbar)      0.00      0.00      0.00
                                0.00      0.00      0.00
                                0.00      0.00      0.00

     dft-nl  stress (kbar)      0.00      0.00      0.00
                                0.00      0.00      0.00
                                0.00      0.00      0.00

     TS-vdW  stress (kbar)      0.00      0.00      0.00
                                0.00      0.00      0.00
                                0.00      0.00      0.00

     MDB     stress (kbar)      0.00      0.00      0.00
                                0.00      0.00      0.00
                                0.00      0.00      0.00

     3D-RISM stress (kbar)      0.00      0.00      0.00
                                0.00      0.00      0.00
                                0.00      0.00      0.00

     Energy error            =      6.0E-05 Ry
     Gradient error          =      2.7E-03 Ry/Bohr
     Cell gradient error     =      5.5E+00 kbar

     number of scf cycles    =   2
     number of bfgs steps    =   1

     enthalpy           old  =     -48.1886442440 Ry
     enthalpy           new  =     -48.1887046820 Ry

     CASE: enthalpy          _new < enthalpy          _old

     new trust radius        =       0.0076982847 bohr
     new conv_thr            =       0.0000000100 Ry

     new unit-cell volume =    702.93766 a.u.^3 (   104.16461 Ang^3 )
     density =      0.76589 g/cm^3

CELL_PARAMETERS (alat=  4.66447000)
   0.998663682   0.000000000   0.000000000
  -0.499331841   0.864868118   0.000000000
   0.000000000   0.000000000   8.019379257

ATOMIC_POSITIONS (crystal)
C             0.0000000000        0.0000000000        0.0000000000    0   0   0
C             0.0000000000        0.0000000000        0.1676590795    0   0   1
C             0.6666670000        0.3333330000        0.0000000000    0   0   0
C             0.3333330000        0.6666670000        0.1677122747    0   0   1



     Writing config-only to output data dir ./tmp/C2L_AB_PBE.save/
     NEW-OLD atomic charge density approx. for the potential

     negative rho (up, down):  8.002E-07 0.000E+00
     extrapolated charge   16.00532, renormalised to   16.00000

     total cpu time spent up to now is       18.5 secs

     Self-consistent Calculation

     iteration #  1     ecut=    80.00 Ry     beta= 0.70
     Davidson diagonalization with overlap

---- Real-time Memory Report at c_bands before calling an iterative solver
             0 MiB given to the printing process from OS
             0 MiB allocation reported by mallinfo(arena+hblkhd)
             0 MiB available memory on the node where the printing process lives
------------------
     ethr =  1.00E-06,  avg # of iterations =  4.3

     negative rho (up, down):  1.689E-07 0.000E+00

     total cpu time spent up to now is       19.5 secs

     total energy              =     -48.18872237 Ry
     estimated scf accuracy    <       0.00003439 Ry

     iteration #  2     ecut=    80.00 Ry     beta= 0.70
     Davidson diagonalization with overlap

---- Real-time Memory Report at c_bands before calling an iterative solver
             0 MiB given to the printing process from OS
             0 MiB allocation reported by mallinfo(arena+hblkhd)
             0 MiB available memory on the node where the printing process lives
------------------
     ethr =  2.15E-07,  avg # of iterations =  5.7

     negative rho (up, down):  1.306E-07 0.000E+00

     total cpu time spent up to now is       20.7 secs

     total energy              =     -48.18872922 Ry
     estimated scf accuracy    <       0.00028243 Ry

     iteration #  3     ecut=    80.00 Ry     beta= 0.70
     Davidson diagonalization with overlap

---- Real-time Memory Report at c_bands before calling an iterative solver
             0 MiB given to the printing process from OS
             0 MiB allocation reported by mallinfo(arena+hblkhd)
             0 MiB available memory on the node where the printing process lives
------------------
     ethr =  2.15E-07,  avg # of iterations =  2.6

     negative rho (up, down):  1.065E-07 0.000E+00

     total cpu time spent up to now is       21.5 secs

     total energy              =     -48.18874780 Ry
     estimated scf accuracy    <       0.00025614 Ry

     iteration #  4     ecut=    80.00 Ry     beta= 0.70
     Davidson diagonalization with overlap

---- Real-time Memory Report at c_bands before calling an iterative solver
             0 MiB given to the printing process from OS
             0 MiB allocation reported by mallinfo(arena+hblkhd)
             0 MiB available memory on the node where the printing process lives
------------------
     ethr =  2.15E-07,  avg # of iterations =  2.0

     negative rho (up, down):  1.820E-08 0.000E+00

     total cpu time spent up to now is       22.2 secs

     total energy              =     -48.18876022 Ry
     estimated scf accuracy    <       0.00000938 Ry

     iteration #  5     ecut=    80.00 Ry     beta= 0.70
     Davidson diagonalization with overlap

---- Real-time Memory Report at c_bands before calling an iterative solver
             0 MiB given to the printing process from OS
             0 MiB allocation reported by mallinfo(arena+hblkhd)
             0 MiB available memory on the node where the printing process lives
------------------
     ethr =  5.86E-08,  avg # of iterations =  2.0

     total cpu time spent up to now is       22.8 secs

     total energy              =     -48.18876148 Ry
     estimated scf accuracy    <       0.00000025 Ry

     iteration #  6     ecut=    80.00 Ry     beta= 0.70
     Davidson diagonalization with overlap

---- Real-time Memory Report at c_bands before calling an iterative solver
             0 MiB given to the printing process from OS
             0 MiB allocation reported by mallinfo(arena+hblkhd)
             0 MiB available memory on the node where the printing process lives
------------------
     ethr =  1.55E-09,  avg # of iterations =  3.4

     total cpu time spent up to now is       23.6 secs

     total energy              =     -48.18876160 Ry
     estimated scf accuracy    <       0.00000006 Ry

     iteration #  7     ecut=    80.00 Ry     beta= 0.70
     Davidson diagonalization with overlap

---- Real-time Memory Report at c_bands before calling an iterative solver
             0 MiB given to the printing process from OS
             0 MiB allocation reported by mallinfo(arena+hblkhd)
             0 MiB available memory on the node where the printing process lives
------------------
     ethr =  3.84E-10,  avg # of iterations =  1.9

     total cpu time spent up to now is       24.4 secs

     End of self-consistent calculation

          k = 0.0000 0.0000 0.0000 (  8603 PWs)   bands (ev):

   -20.0594 -19.8961  -8.5658  -7.5410  -3.4873  -3.4873  -3.4770  -3.4770
     3.0043   3.3902   4.1640   5.3521

     occupation numbers 
     1.0000   1.0000   1.0000   1.0000   1.0000   1.0000   1.0000   1.0000
     0.0000   0.0000   0.0000   0.0000

          k = 0.0000 0.0964 0.0000 (  8567 PWs)   bands (ev):

   -19.8946 -19.7330  -8.3666  -7.3482  -4.1437  -4.1250  -3.8301  -3.8144
     3.2256   3.6136   4.3903   5.5765

     occupation numbers 
     1.0000   1.0000   1.0000   1.0000   1.0000   1.0000   1.0000   1.0000
     0.0000   0.0000   0.0000   0.0000

          k = 0.0000 0.1927 0.0000 (  8545 PWs)   bands (ev):

   -19.4021 -19.2453  -7.7736  -6.7759  -5.7938  -5.7583  -4.6300  -4.6076
     3.8891   4.2826   5.0691   6.2480

     occupation numbers 
     1.0000   1.0000   1.0000   1.0000   1.0000   1.0000   1.0000   1.0000
     0.0000   0.0000   0.0000   0.0000

          k = 0.0000 0.2891 0.0000 (  8492 PWs)   bands (ev):

   -18.5875 -18.4386  -7.9066  -7.8520  -6.8039  -5.8455  -5.5169  -5.4904
     4.9911   5.3814   6.1981   6.6469

     occupation numbers 
     1.0000   1.0000   1.0000   1.0000   1.0000   1.0000   1.0000   1.0000
     0.0000   0.0000   0.0000   0.0000

          k = 0.0000 0.3854 0.0000 (  8472 PWs)   bands (ev):

   -17.4629 -17.3250 -10.1236 -10.0503  -6.2560  -6.2270  -5.5021  -4.6159
     4.2464   4.7292   6.5178   6.9512

     occupation numbers 
     1.0000   1.0000   1.0000   1.0000   1.0000   1.0000   1.0000   1.0000
     0.0000   0.0000   0.0000   0.0000

          k = 0.0000 0.4818 0.0000 (  8484 PWs)   bands (ev):

   -16.0587 -15.9357 -12.2351 -12.1462  -6.7325  -6.7023  -4.0059  -3.2855
     2.0983   2.6272   7.0050   7.2095

     occupation numbers 
     1.0000   1.0000   1.0000   1.0000   1.0000   1.0000   1.0000   1.0000
     0.0000   0.0000   0.0000   0.0000

          k = 0.0000-0.5781 0.0000 (  8450 PWs)   bands (ev):

   -14.7645 -14.7029 -13.7209 -13.6745  -6.8961  -6.8655  -3.0143  -2.6355
     1.1079   1.4708   6.9189   7.1348

     occupation numbers 
     1.0000   1.0000   1.0000   1.0000   1.0000   1.0000   1.0000   1.0000
     0.0000   0.0000   0.0000   0.0000

          k = 0.0834 0.1445 0.0000 (  8561 PWs)   bands (ev):

   -19.5660 -19.4076  -7.9704  -6.9655  -5.1802  -5.1622  -4.5088  -4.4956
     3.6683   4.0600   4.8430   6.0249

     occupation numbers 
     1.0000   1.0000   1.0000   1.0000   1.0000   1.0000   1.0000   1.0000
     0.0000   0.0000   0.0000   0.0000

          k = 0.0834 0.2409 0.0000 (  8508 PWs)   bands (ev):

   -18.9124 -18.7604  -7.1883  -6.9038  -6.8663  -6.2126  -5.5169  -5.4925
     4.5523   4.9492   5.7480   6.9165

     occupation numbers 
     1.0000   1.0000   1.0000   1.0000   1.0000   1.0000   1.0000   1.0000
     0.0000   0.0000   0.0000   0.0000

          k = 0.0834 0.3372 0.0000 (  8491 PWs)   bands (ev):

   -17.9427 -17.8001  -8.9927  -8.9321  -6.4119  -6.3792  -6.0469  -5.1247
     5.3035   5.6852   5.8762   6.3035

     occupation numbers 
     1.0000   1.0000   1.0000   1.0000   1.0000   1.0000   1.0000   1.0000
     0.0000   0.0000   0.0000   0.0000

          k = 0.0834 0.4336 0.0000 (  8467 PWs)   bands (ev):

   -16.6754 -16.5454 -11.1288 -11.0490  -7.0520  -7.0157  -4.6200  -3.8012
     3.0558   3.5433   7.5846   7.8177

     occupation numbers 
     1.0000   1.0000   1.0000   1.0000   1.0000   1.0000   1.0000   1.0000
     0.0000   0.0000   0.0000   0.0000

          k = 0.0834 0.5299 0.0000 (  8469 PWs)   bands (ev):

   -15.1837 -15.0758 -13.0772 -12.9893  -7.3831  -7.3453  -3.1910  -2.6498
     1.3412   1.7612   7.6513   7.8759

     occupation numbers 
     1.0000   1.0000   1.0000   1.0000   1.0000   1.0000   1.0000   1.0000
     0.0000   0.0000   0.0000   0.0000

          k = 0.1669 0.2891 0.0000 (  8483 PWs)   bands (ev):

   -18.1037 -17.9596  -8.2344  -8.2043  -6.8808  -6.8589  -6.2310  -5.2973
     5.6525   5.8151   6.0393   6.0874

     occupation numbers 
     1.0000   1.0000   1.0000   1.0000   1.0000   1.0000   1.0000   1.0000
     0.0000   0.0000   0.0000   0.0000

          k = 0.1669 0.3854 0.0000 (  8505 PWs)   bands (ev):

   -16.9900 -16.8568  -9.9782  -9.9211  -7.9496  -7.9100  -4.9438  -4.0828
     3.8290   4.1660   7.1844   7.5807

     occupation numbers 
     1.0000   1.0000   1.0000   1.0000   1.0000   1.0000   1.0000   1.0000
     0.0000   0.0000   0.0000   0.0000

          k = 0.1669 0.4818 0.0000 (  8491 PWs)   bands (ev):

   -15.6057 -15.4875 -11.9032 -11.8227  -8.5331  -8.4833  -3.4489  -2.7399
     1.8933   2.2945   9.1021   9.3929

     occupation numbers 
     1.0000   1.0000   1.0000   1.0000   1.0000   1.0000   1.0000   1.0000
     0.0000   0.0000   0.0000   0.0000

          k = 0.1669 0.5781 0.0000 (  8478 PWs)   bands (ev):

   -14.3421 -14.2829 -13.3187 -13.2779  -8.7199  -8.6677  -2.4137  -2.0411
     0.9651   1.1388   9.4099   9.7023

     occupation numbers 
     1.0000   1.0000   1.0000   1.0000   1.0000   1.0000   1.0000   1.0000
     0.0000   0.0000   0.0000   0.0000

          k = 0.2503 0.4336 0.0000 (  8483 PWs)   bands (ev):

   -15.7547 -15.6343 -11.0082 -10.9663  -9.4306  -9.3997  -3.5545  -2.7935
     2.2197   2.5419   8.9000   9.1922

     occupation numbers 
     1.0000   1.0000   1.0000   1.0000   1.0000   1.0000   1.0000   1.0000
     0.0000   0.0000   0.0000   0.0000

          k = 0.2503 0.5299 0.0000 (  8484 PWs)   bands (ev):

   -14.3206 -14.2220 -12.4431 -12.3764 -10.1507 -10.0985  -2.0757  -1.5306
     0.7267   1.0186  10.3427  10.5726

     occupation numbers 
     1.0000   1.0000   1.0000   1.0000   1.0000   1.0000   1.0000   1.0000
     0.0000   0.0000   0.0000   0.0000

          k = 0.3338 0.5781 0.0000 (  8478 PWs)   bands (ev):

   -13.1066 -13.0520 -13.0520 -13.0026 -11.0212 -11.0211  -0.7919  -0.4441
    -0.4441  -0.0738  10.1945  10.1949

     occupation numbers 
     1.0000   1.0000   1.0000   1.0000   1.0000   1.0000   1.0000   0.5003
     0.4997   0.0000   0.0000   0.0000

     the Fermi energy is    -0.4346 ev

!    total energy              =     -48.18876161 Ry
     estimated scf accuracy    <          4.1E-09 Ry
     smearing contrib. (-TS)   =      -0.00004558 Ry
     internal energy E=F+TS    =     -48.18871603 Ry

     The total energy is F=E-TS. E is the sum of the following terms:
     one-electron contribution =    -531.78327670 Ry
     hartree contribution      =     269.64534139 Ry
     xc contribution           =     -17.16883220 Ry
     ewald contribution        =     231.11805148 Ry

     convergence has been achieved in   7 iterations

     Forces acting on atoms (cartesian axes, Ry/au):

     atom    1 type  1   force =     0.00000000    0.00000000   -0.00180633
     atom    2 type  1   force =     0.00000000    0.00000000    0.00249654
     atom    3 type  1   force =     0.00000000    0.00000000   -0.00291582
     atom    4 type  1   force =     0.00000000    0.00000000    0.00222561
     The non-local contrib.  to forces
     atom    1 type  1   force =     0.00000000   -0.00000000   -0.00096377
     atom    2 type  1   force =     0.00000000    0.00000000    0.00228473
     atom    3 type  1   force =     0.00000000    0.00000000   -0.00259059
     atom    4 type  1   force =     0.00000000   -0.00000000    0.00124725
     The ionic contribution  to forces
     atom    1 type  1   force =     0.00000853   -0.00000493  -14.22399604
     atom    2 type  1   force =    -0.00000853    0.00000493   14.21168348
     atom    3 type  1   force =    -0.00000855    0.00000493  -14.21848147
     atom    4 type  1   force =     0.00000855   -0.00000493   14.23079403
     The local contribution  to forces
     atom    1 type  1   force =     0.00000000    0.00000000   14.22297793
     atom    2 type  1   force =    -0.00000000   -0.00000000  -14.21125034
     atom    3 type  1   force =    -0.00000675    0.00000390   14.21791204
     atom    4 type  1   force =     0.00000675   -0.00000390  -14.22955404
     The core correction contribution to forces
     atom    1 type  1   force =    -0.00000000    0.00000000    0.00005714
     atom    2 type  1   force =     0.00000000   -0.00000000   -0.00007161
     atom    3 type  1   force =     0.00000050   -0.00000029    0.00012746
     atom    4 type  1   force =    -0.00000050    0.00000029   -0.00011235
     The Hubbard contrib.    to forces
     atom    1 type  1   force =     0.00000000    0.00000000    0.00000000
     atom    2 type  1   force =     0.00000000    0.00000000    0.00000000
     atom    3 type  1   force =     0.00000000    0.00000000    0.00000000
     atom    4 type  1   force =     0.00000000    0.00000000    0.00000000
     The SCF correction term to forces
     atom    1 type  1   force =     0.00000000   -0.00000000    0.00000000
     atom    2 type  1   force =    -0.00000000    0.00000000   -0.00015170
     atom    3 type  1   force =     0.00000000   -0.00000000    0.00000000
     atom    4 type  1   force =     0.00000000   -0.00000000   -0.00015127

     Total force =     0.003345     Total SCF correction =     0.000214


     Computing stress (Cartesian axis) and pressure

          total   stress  (Ry/bohr**3)                   (kbar)     P=        2.50
   0.00000723   0.00000000   0.00000000            1.06        0.00        0.00
   0.00000000   0.00000723   0.00000000            0.00        1.06        0.00
   0.00000000   0.00000000   0.00003653            0.00        0.00        5.37

     kinetic stress (kbar)   4528.83     -0.00      0.00
                               -0.00   4528.83      0.00
                                0.00      0.00   5005.44

     local   stress (kbar)-115750.18      0.00     -0.00
                                0.00-115750.18      0.00
                               -0.00      0.00 117109.54

     nonloc. stress (kbar)   -461.13      0.00      0.00
                                0.00   -461.13     -0.00
                                0.00     -0.00   -388.92

     hartree stress (kbar)  56082.81     -0.00      0.00
                               -0.00  56082.81     -0.00
                                0.00     -0.00 -55736.43

     exc-cor stress (kbar)   -359.38     -0.00      0.00
                               -0.00   -359.38     -0.00
                                0.00     -0.00   -400.58

     corecor stress (kbar)   -682.03      0.00     -0.00
                                0.00   -682.03      0.00
                               -0.00      0.00   -665.87

     ewald   stress (kbar)  56642.15     -0.01      0.00
                               -0.01  56642.15     -0.00
                                0.00     -0.00 -64917.80

     hubbard stress (kbar)      0.00      0.00      0.00
                                0.00      0.00      0.00
                                0.00      0.00      0.00

     DFT-D   stress (kbar)      0.00      0.00      0.00
                                0.00      0.00      0.00
                                0.00      0.00      0.00

     XDM     stress (kbar)      0.00      0.00      0.00
                                0.00      0.00      0.00
                                0.00      0.00      0.00

     dft-nl  stress (kbar)      0.00      0.00      0.00
                                0.00      0.00      0.00
                                0.00      0.00      0.00

     TS-vdW  stress (kbar)      0.00      0.00      0.00
                                0.00      0.00      0.00
                                0.00      0.00      0.00

     MDB     stress (kbar)      0.00      0.00      0.00
                                0.00      0.00      0.00
                                0.00      0.00      0.00

     3D-RISM stress (kbar)      0.00      0.00      0.00
                                0.00      0.00      0.00
                                0.00      0.00      0.00

     Energy error            =      5.7E-05 Ry
     Gradient error          =      2.5E-03 Ry/Bohr
     Cell gradient error     =      5.4E+00 kbar

     number of scf cycles    =   3
     number of bfgs steps    =   2

     enthalpy           old  =     -48.1887046820 Ry
     enthalpy           new  =     -48.1887616060 Ry

     CASE: enthalpy          _new < enthalpy          _old

     new trust radius        =       0.0115326010 bohr
     new conv_thr            =       0.0000000100 Ry

     new unit-cell volume =    703.78814 a.u.^3 (   104.29064 Ang^3 )
     density =      0.76497 g/cm^3

CELL_PARAMETERS (alat=  4.66447000)
   0.998182754   0.000000000   0.000000000
  -0.499091377   0.864451623   0.000000000
   0.000000000   0.000000000   8.036820587

ATOMIC_POSITIONS (crystal)
C             0.0000000000        0.0000000000        0.0000000000    0   0   0
C             0.0000000000        0.0000000000        0.1678008266    0   0   1
C             0.6666670000        0.3333330000       -0.0000000000    0   0   0
C             0.3333330000        0.6666670000        0.1678728575    0   0   1



     Writing config-only to output data dir ./tmp/C2L_AB_PBE.save/
     NEW-OLD atomic charge density approx. for the potential

     negative rho (up, down):  1.314E-06 0.000E+00
     extrapolated charge   16.01933, renormalised to   16.00000

     total cpu time spent up to now is       26.2 secs

     Self-consistent Calculation

     iteration #  1     ecut=    80.00 Ry     beta= 0.70
     Davidson diagonalization with overlap

---- Real-time Memory Report at c_bands before calling an iterative solver
             0 MiB given to the printing process from OS
             0 MiB allocation reported by mallinfo(arena+hblkhd)
             0 MiB available memory on the node where the printing process lives
------------------
     c_bands:  1 eigenvalues not converged
     c_bands:  1 eigenvalues not converged
     c_bands:  1 eigenvalues not converged
     ethr =  1.00E-06,  avg # of iterations =  9.8

     negative rho (up, down):  2.769E-07 0.000E+00

     total cpu time spent up to now is       27.7 secs

     total energy              =     -48.18827197 Ry
     estimated scf accuracy    <       0.00044604 Ry

     iteration #  2     ecut=    80.00 Ry     beta= 0.70
     Davidson diagonalization with overlap

---- Real-time Memory Report at c_bands before calling an iterative solver
             0 MiB given to the printing process from OS
             0 MiB allocation reported by mallinfo(arena+hblkhd)
             0 MiB available memory on the node where the printing process lives
------------------
     c_bands:  1 eigenvalues not converged
     c_bands:  1 eigenvalues not converged
     ethr =  2.79E-06,  avg # of iterations =  9.4

     negative rho (up, down):  1.875E-07 0.000E+00

     total cpu time spent up to now is       29.1 secs

     total energy              =     -48.18869800 Ry
     estimated scf accuracy    <       0.00187262 Ry

     iteration #  3     ecut=    80.00 Ry     beta= 0.70
     Davidson diagonalization with overlap

---- Real-time Memory Report at c_bands before calling an iterative solver
             0 MiB given to the printing process from OS
             0 MiB allocation reported by mallinfo(arena+hblkhd)
             0 MiB available memory on the node where the printing process lives
------------------
     ethr =  2.79E-06,  avg # of iterations =  4.8

     negative rho (up, down):  1.735E-07 0.000E+00

     total cpu time spent up to now is       30.0 secs

     total energy              =     -48.18885887 Ry
     estimated scf accuracy    <       0.00037250 Ry

     iteration #  4     ecut=    80.00 Ry     beta= 0.70
     Davidson diagonalization with overlap

---- Real-time Memory Report at c_bands before calling an iterative solver
             0 MiB given to the printing process from OS
             0 MiB allocation reported by mallinfo(arena+hblkhd)
             0 MiB available memory on the node where the printing process lives
------------------
     ethr =  2.33E-06,  avg # of iterations =  1.0

     negative rho (up, down):  1.197E-07 0.000E+00

     total cpu time spent up to now is       30.6 secs

     total energy              =     -48.18884777 Ry
     estimated scf accuracy    <       0.00014983 Ry

     iteration #  5     ecut=    80.00 Ry     beta= 0.70
     Davidson diagonalization with overlap

---- Real-time Memory Report at c_bands before calling an iterative solver
             0 MiB given to the printing process from OS
             0 MiB allocation reported by mallinfo(arena+hblkhd)
             0 MiB available memory on the node where the printing process lives
------------------
     ethr =  9.36E-07,  avg # of iterations =  1.2

     total cpu time spent up to now is       31.2 secs

     total energy              =     -48.18881950 Ry
     estimated scf accuracy    <       0.00006560 Ry

     iteration #  6     ecut=    80.00 Ry     beta= 0.70
     Davidson diagonalization with overlap

---- Real-time Memory Report at c_bands before calling an iterative solver
             0 MiB given to the printing process from OS
             0 MiB allocation reported by mallinfo(arena+hblkhd)
             0 MiB available memory on the node where the printing process lives
------------------
     ethr =  4.10E-07,  avg # of iterations =  4.1

     total cpu time spent up to now is       32.1 secs

     total energy              =     -48.18883202 Ry
     estimated scf accuracy    <       0.00000013 Ry

     iteration #  7     ecut=    80.00 Ry     beta= 0.70
     Davidson diagonalization with overlap

---- Real-time Memory Report at c_bands before calling an iterative solver
             0 MiB given to the printing process from OS
             0 MiB allocation reported by mallinfo(arena+hblkhd)
             0 MiB available memory on the node where the printing process lives
------------------
     ethr =  7.88E-10,  avg # of iterations =  4.5

     total cpu time spent up to now is       33.0 secs

     total energy              =     -48.18883241 Ry
     estimated scf accuracy    <       0.00000006 Ry

     iteration #  8     ecut=    80.00 Ry     beta= 0.70
     Davidson diagonalization with overlap

---- Real-time Memory Report at c_bands before calling an iterative solver
             0 MiB given to the printing process from OS
             0 MiB allocation reported by mallinfo(arena+hblkhd)
             0 MiB available memory on the node where the printing process lives
------------------
     ethr =  3.98E-10,  avg # of iterations =  1.1

     total cpu time spent up to now is       33.6 secs

     total energy              =     -48.18883241 Ry
     estimated scf accuracy    <       0.00000002 Ry

     iteration #  9     ecut=    80.00 Ry     beta= 0.70
     Davidson diagonalization with overlap

---- Real-time Memory Report at c_bands before calling an iterative solver
             0 MiB given to the printing process from OS
             0 MiB allocation reported by mallinfo(arena+hblkhd)
             0 MiB available memory on the node where the printing process lives
------------------
     ethr =  1.11E-10,  avg # of iterations =  2.0

     total cpu time spent up to now is       34.4 secs

     End of self-consistent calculation

          k = 0.0000 0.0000 0.0000 (  8603 PWs)   bands (ev):

   -20.0706 -19.9113  -8.5697  -7.5607  -3.4884  -3.4883  -3.4784  -3.4783
     2.9958   3.3826   4.1540   5.3371

     occupation numbers 
     1.0000   1.0000   1.0000   1.0000   1.0000   1.0000   1.0000   1.0000
     0.0000   0.0000   0.0000   0.0000

          k = 0.0000 0.0964 0.0000 (  8567 PWs)   bands (ev):

   -19.9057 -19.7480  -8.3702  -7.3677  -4.1449  -4.1268  -3.8315  -3.8163
     3.2173   3.6063   4.3805   5.5616

     occupation numbers 
     1.0000   1.0000   1.0000   1.0000   1.0000   1.0000   1.0000   1.0000
     0.0000   0.0000   0.0000   0.0000

          k = 0.0000 0.1928 0.0000 (  8545 PWs)   bands (ev):

   -19.4128 -19.2598  -7.7767  -6.7945  -5.7958  -5.7614  -4.6325  -4.6108
     3.8814   4.2759   5.0599   6.2340

     occupation numbers 
     1.0000   1.0000   1.0000   1.0000   1.0000   1.0000   1.0000   1.0000
     0.0000   0.0000   0.0000   0.0000

          k = 0.0000 0.2892 0.0000 (  8492 PWs)   bands (ev):

   -18.5976 -18.4524  -7.9099  -7.8569  -6.8061  -5.8626  -5.5206  -5.4949
     4.9843   5.3761   6.1901   6.6576

     occupation numbers 
     1.0000   1.0000   1.0000   1.0000   1.0000   1.0000   1.0000   1.0000
     0.0000   0.0000   0.0000   0.0000

          k = 0.0000 0.3856 0.0000 (  8472 PWs)   bands (ev):

   -17.4722 -17.3377 -10.1285 -10.0572  -6.2605  -6.2325  -5.5029  -4.6308
     4.2549   4.7295   6.5124   6.9473

     occupation numbers 
     1.0000   1.0000   1.0000   1.0000   1.0000   1.0000   1.0000   1.0000
     0.0000   0.0000   0.0000   0.0000

          k = 0.0000 0.4820 0.0000 (  8484 PWs)   bands (ev):

   -16.0667 -15.9468 -12.2418 -12.1552  -6.7376  -6.7084  -4.0057  -3.2969
     2.1032   2.6237   7.0199   7.2197

     occupation numbers 
     1.0000   1.0000   1.0000   1.0000   1.0000   1.0000   1.0000   1.0000
     0.0000   0.0000   0.0000   0.0000

          k = 0.0000-0.5784 0.0000 (  8450 PWs)   bands (ev):

   -14.7703 -14.7102 -13.7313 -13.6861  -6.9014  -6.8718  -3.0145  -2.6423
     1.1082   1.4667   6.9342   7.1453

     occupation numbers 
     1.0000   1.0000   1.0000   1.0000   1.0000   1.0000   1.0000   1.0000
     0.0000   0.0000   0.0000   0.0000

          k = 0.0835 0.1446 0.0000 (  8561 PWs)   bands (ev):

   -19.5768 -19.4223  -7.9736  -6.9844  -5.1819  -5.1645  -4.5113  -4.4985
     3.6604   4.0531   4.8336   6.0106

     occupation numbers 
     1.0000   1.0000   1.0000   1.0000   1.0000   1.0000   1.0000   1.0000
     0.0000   0.0000   0.0000   0.0000

          k = 0.0835 0.2410 0.0000 (  8508 PWs)   bands (ev):

   -18.9228 -18.7745  -7.1908  -6.9064  -6.8700  -6.2303  -5.5206  -5.4969
     4.5452   4.9433   5.7396   6.9034

     occupation numbers 
     1.0000   1.0000   1.0000   1.0000   1.0000   1.0000   1.0000   1.0000
     0.0000   0.0000   0.0000   0.0000

          k = 0.0835 0.3374 0.0000 (  8491 PWs)   bands (ev):

   -17.9524 -17.8133  -8.9967  -8.9378  -6.4164  -6.3848  -6.0483  -5.1406
     5.3130   5.6881   5.8702   6.2993

     occupation numbers 
     1.0000   1.0000   1.0000   1.0000   1.0000   1.0000   1.0000   1.0000
     0.0000   0.0000   0.0000   0.0000

          k = 0.0835 0.4338 0.0000 (  8467 PWs)   bands (ev):

   -16.6840 -16.5573 -11.1344 -11.0568  -7.0572  -7.0220  -4.6201  -3.8144
     3.0626   3.5419   7.5814   7.8305

     occupation numbers 
     1.0000   1.0000   1.0000   1.0000   1.0000   1.0000   1.0000   1.0000
     0.0000   0.0000   0.0000   0.0000

          k = 0.0835 0.5302 0.0000 (  8469 PWs)   bands (ev):

   -15.1906 -15.0854 -13.0851 -12.9994  -7.3886  -7.3519  -3.1906  -2.6583
     1.3434   1.7574   7.6670   7.8868

     occupation numbers 
     1.0000   1.0000   1.0000   1.0000   1.0000   1.0000   1.0000   1.0000
     0.0000   0.0000   0.0000   0.0000

          k = 0.1670 0.2892 0.0000 (  8483 PWs)   bands (ev):

   -18.1135 -17.9729  -8.2376  -8.2083  -6.8864  -6.8651  -6.2325  -5.3136
     5.6463   5.8251   6.0382   6.0888

     occupation numbers 
     1.0000   1.0000   1.0000   1.0000   1.0000   1.0000   1.0000   1.0000
     0.0000   0.0000   0.0000   0.0000

          k = 0.1670 0.3856 0.0000 (  8505 PWs)   bands (ev):

   -16.9989 -16.8690  -9.9825  -9.9269  -7.9559  -7.9174  -4.9441  -4.0969
     3.8366   4.1675   7.1795   7.5777

     occupation numbers 
     1.0000   1.0000   1.0000   1.0000   1.0000   1.0000   1.0000   1.0000
     0.0000   0.0000   0.0000   0.0000

          k = 0.1670 0.4820 0.0000 (  8491 PWs)   bands (ev):

   -15.6133 -15.4981 -11.9093 -11.8309  -8.5395  -8.4911  -3.4481  -2.7506
     1.8979   2.2925   9.0994   9.3972

     occupation numbers 
     1.0000   1.0000   1.0000   1.0000   1.0000   1.0000   1.0000   1.0000
     0.0000   0.0000   0.0000   0.0000

          k = 0.1670 0.5784 0.0000 (  8478 PWs)   bands (ev):

   -14.3477 -14.2901 -13.3282 -13.2885  -8.7264  -8.6757  -2.4132  -2.0470
     0.9646   1.1368   9.4269   9.7146

     occupation numbers 
     1.0000   1.0000   1.0000   1.0000   1.0000   1.0000   1.0000   1.0000
     0.0000   0.0000   0.0000   0.0000

          k = 0.2505 0.4338 0.0000 (  8483 PWs)   bands (ev):

   -15.7626 -15.6452 -11.0126 -10.9719  -9.4393  -9.4092  -3.5536  -2.8049
     2.2251   2.5414   8.8966   9.1919

     occupation numbers 
     1.0000   1.0000   1.0000   1.0000   1.0000   1.0000   1.0000   1.0000
     0.0000   0.0000   0.0000   0.0000

          k = 0.2505 0.5302 0.0000 (  8484 PWs)   bands (ev):

   -14.3269 -14.2308 -12.4492 -12.3841 -10.1596 -10.1087  -2.0740  -1.5378
     0.7292   1.0159  10.3464  10.5685

     occupation numbers 
     1.0000   1.0000   1.0000   1.0000   1.0000   1.0000   1.0000   1.0000
     0.0000   0.0000   0.0000   0.0000

          k = 0.3339 0.5784 0.0000 (  8478 PWs)   bands (ev):

   -13.1111 -13.0580 -13.0580 -13.0099 -11.0335 -11.0335  -0.7870  -0.4452
    -0.4451  -0.0816  10.1937  10.1944

     occupation numbers 
     1.0000   1.0000   1.0000   1.0000   1.0000   1.0000   1.0000   0.5004
     0.4996   0.0000   0.0000   0.0000

     the Fermi energy is    -0.4357 ev

!    total energy              =     -48.18883241 Ry
     estimated scf accuracy    <          1.6E-10 Ry
[...]

     total energy              =     -48.12889624 Ry
     estimated scf accuracy    <       0.39665631 Ry

     iteration #  2     ecut=    80.00 Ry     beta= 0.70
     Davidson diagonalization with overlap

---- Real-time Memory Report at c_bands before calling an iterative solver
             0 MiB given to the printing process from OS
             0 MiB allocation reported by mallinfo(arena+hblkhd)
             0 MiB available memory on the node where the printing process lives
------------------
     ethr =  2.48E-03,  avg # of iterations =  4.7

     negative rho (up, down):  1.281E-06 0.000E+00

     total cpu time spent up to now is      344.8 secs

     total energy              =     -48.19011096 Ry
     estimated scf accuracy    <       0.00450488 Ry

     iteration #  3     ecut=    80.00 Ry     beta= 0.70
     Davidson diagonalization with overlap

---- Real-time Memory Report at c_bands before calling an iterative solver
             0 MiB given to the printing process from OS
             0 MiB allocation reported by mallinfo(arena+hblkhd)
             0 MiB available memory on the node where the printing process lives
------------------
     ethr =  2.82E-05,  avg # of iterations =  8.2

     negative rho (up, down):  1.729E-08 0.000E+00

     total cpu time spent up to now is      345.8 secs

     total energy              =     -48.19065955 Ry
     estimated scf accuracy    <       0.00046602 Ry

     iteration #  4     ecut=    80.00 Ry     beta= 0.70
     Davidson diagonalization with overlap

---- Real-time Memory Report at c_bands before calling an iterative solver
             0 MiB given to the printing process from OS
             0 MiB allocation reported by mallinfo(arena+hblkhd)
             0 MiB available memory on the node where the printing process lives
------------------
     ethr =  2.91E-06,  avg # of iterations =  5.4

     total cpu time spent up to now is      346.7 secs

     total energy              =     -48.19067847 Ry
     estimated scf accuracy    <       0.00026368 Ry

     iteration #  5     ecut=    80.00 Ry     beta= 0.70
     Davidson diagonalization with overlap

---- Real-time Memory Report at c_bands before calling an iterative solver
             0 MiB given to the printing process from OS
             0 MiB allocation reported by mallinfo(arena+hblkhd)
             0 MiB available memory on the node where the printing process lives
------------------
     ethr =  1.65E-06,  avg # of iterations =  5.1

     total cpu time spent up to now is      347.4 secs

     total energy              =     -48.19068731 Ry
     estimated scf accuracy    <       0.00096408 Ry

     iteration #  6     ecut=    80.00 Ry     beta= 0.70
     Davidson diagonalization with overlap

---- Real-time Memory Report at c_bands before calling an iterative solver
             0 MiB given to the printing process from OS
             0 MiB allocation reported by mallinfo(arena+hblkhd)
             0 MiB available memory on the node where the printing process lives
------------------
     ethr =  1.65E-06,  avg # of iterations =  2.5

     total cpu time spent up to now is      348.0 secs

     total energy              =     -48.19074614 Ry
     estimated scf accuracy    <       0.00000489 Ry

     iteration #  7     ecut=    80.00 Ry     beta= 0.70
     Davidson diagonalization with overlap

---- Real-time Memory Report at c_bands before calling an iterative solver
             0 MiB given to the printing process from OS
             0 MiB allocation reported by mallinfo(arena+hblkhd)
             0 MiB available memory on the node where the printing process lives
------------------
     ethr =  3.06E-08,  avg # of iterations =  2.4

     total cpu time spent up to now is      348.7 secs

     total energy              =     -48.19074721 Ry
     estimated scf accuracy    <       0.00000022 Ry

     iteration #  8     ecut=    80.00 Ry     beta= 0.70
     Davidson diagonalization with overlap

---- Real-time Memory Report at c_bands before calling an iterative solver
             0 MiB given to the printing process from OS
             0 MiB allocation reported by mallinfo(arena+hblkhd)
             0 MiB available memory on the node where the printing process lives
------------------
     ethr =  1.36E-09,  avg # of iterations =  3.3

     total cpu time spent up to now is      349.6 secs

     total energy              =     -48.19074729 Ry
     estimated scf accuracy    <       0.00000002 Ry

     iteration #  9     ecut=    80.00 Ry     beta= 0.70
     Davidson diagonalization with overlap

---- Real-time Memory Report at c_bands before calling an iterative solver
             0 MiB given to the printing process from OS
             0 MiB allocation reported by mallinfo(arena+hblkhd)
             0 MiB available memory on the node where the printing process lives
------------------
     ethr =  1.20E-10,  avg # of iterations =  3.2

     total cpu time spent up to now is      350.6 secs

     End of self-consistent calculation

          k = 0.0000 0.0000 0.0000 (  7595 PWs)   bands (ev):

   -19.4841 -19.4415  -7.7650  -7.3378  -2.9874  -2.9874  -2.9857  -2.9857
     3.3548   3.8830   4.6922   6.0496

     occupation numbers 
     1.0000   1.0000   1.0000   1.0000   1.0000   1.0000   1.0000   1.0000
     0.0000   0.0000   0.0000   0.0000

          k =-0.0000 0.0963 0.0000 (  7611 PWs)   bands (ev):

   -19.3201 -19.2781  -7.5673  -7.1434  -3.6399  -3.6364  -3.3273  -3.3246
     3.5750   4.1056   4.9138   6.2620

     occupation numbers 
     1.0000   1.0000   1.0000   1.0000   1.0000   1.0000   1.0000   1.0000
     0.0000   0.0000   0.0000   0.0000

          k =-0.0000 0.1926 0.0000 (  7569 PWs)   bands (ev):

   -18.8299 -18.7894  -6.9791  -6.5657  -5.2817  -5.2745  -4.1230  -4.1190
     4.2355   4.7721   5.5777   6.8940

     occupation numbers 
     1.0000   1.0000   1.0000   1.0000   1.0000   1.0000   1.0000   1.0000
     0.0000   0.0000   0.0000   0.0000

          k =-0.0000 0.2889 0.0000 (  7531 PWs)   bands (ev):

   -18.0192 -17.9811  -7.3847  -7.3729  -6.0190  -5.6250  -5.0068  -5.0019
     5.3328   5.8696   6.6633   7.2528

     occupation numbers 
     1.0000   1.0000   1.0000   1.0000   1.0000   1.0000   1.0000   1.0000
     0.0000   0.0000   0.0000   0.0000

          k =-0.0000 0.3852 0.0000 (  7514 PWs)   bands (ev):

   -16.9000 -16.8652  -9.5920  -9.5754  -5.7436  -5.7383  -4.7346  -4.3750
     4.8969   5.0732   6.8511   7.4300

     occupation numbers 
     1.0000   1.0000   1.0000   1.0000   1.0000   1.0000   1.0000   1.0000
     0.0000   0.0000   0.0000   0.0000

          k =-0.0000 0.4815 0.0000 (  7514 PWs)   bands (ev):

   -15.5032 -15.4728 -11.6949 -11.6740  -6.2189  -6.2133  -3.2781  -2.9922
     2.7507   2.9623   7.5631   7.6179

     occupation numbers 
     1.0000   1.0000   1.0000   1.0000   1.0000   1.0000   1.0000   1.0000
     0.0000   0.0000   0.0000   0.0000

          k = 0.0000-0.5778-0.0000 (  7494 PWs)   bands (ev):

   -14.2336 -14.2190 -13.1952 -13.1837  -6.3820  -6.3763  -2.3660  -2.2263
     1.6790   1.8522   7.4807   7.5413

     occupation numbers 
     1.0000   1.0000   1.0000   1.0000   1.0000   1.0000   1.0000   1.0000
     0.0000   0.0000   0.0000   0.0000

          k = 0.0834 0.1444 0.0000 (  7591 PWs)   bands (ev):

   -18.9930 -18.9520  -7.1742  -6.7572  -4.6756  -4.6722  -4.0059  -4.0035
     4.0157   4.5504   5.3569   6.6857

     occupation numbers 
     1.0000   1.0000   1.0000   1.0000   1.0000   1.0000   1.0000   1.0000
     0.0000   0.0000   0.0000   0.0000

          k = 0.0834 0.2407 0.0000 (  7546 PWs)   bands (ev):

   -18.3426 -18.3035  -6.3993  -6.3896  -6.3821  -5.9967  -5.0076  -5.0030
     4.8957   5.4368   6.2404   7.5124

     occupation numbers 
     1.0000   1.0000   1.0000   1.0000   1.0000   1.0000   1.0000   1.0000
     0.0000   0.0000   0.0000   0.0000

          k = 0.0834 0.3370 0.0000 (  7523 PWs)   bands (ev):

   -17.3775 -17.3413  -8.4674  -8.4541  -5.8979  -5.8916  -5.2707  -4.8943
     5.9260   6.0599   6.2090   6.7867

     occupation numbers 
     1.0000   1.0000   1.0000   1.0000   1.0000   1.0000   1.0000   1.0000
     0.0000   0.0000   0.0000   0.0000

          k = 0.0834 0.4333 0.0000 (  7505 PWs)   bands (ev):

   -16.1164 -16.0840 -10.5936 -10.5753  -6.5357  -6.5285  -3.8689  -3.5402
     3.7063   3.8911   7.9214   8.3512

     occupation numbers 
     1.0000   1.0000   1.0000   1.0000   1.0000   1.0000   1.0000   1.0000
     0.0000   0.0000   0.0000   0.0000

          k = 0.0834 0.5296 0.0000 (  7502 PWs)   bands (ev):

   -14.6352 -14.6089 -12.5361 -12.5152  -6.8657  -6.8582  -2.5052  -2.2955
     1.9472   2.1278   8.2143   8.2812

     occupation numbers 
     1.0000   1.0000   1.0000   1.0000   1.0000   1.0000   1.0000   1.0000
     0.0000   0.0000   0.0000   0.0000

          k = 0.1668 0.2889 0.0000 (  7521 PWs)   bands (ev):

   -17.5377 -17.5010  -7.7223  -7.7160  -6.3703  -6.3657  -5.4520  -5.0702
     5.9928   6.4027   6.4864   6.5405

     occupation numbers 
     1.0000   1.0000   1.0000   1.0000   1.0000   1.0000   1.0000   1.0000
     0.0000   0.0000   0.0000   0.0000

          k = 0.1668 0.3852 0.0000 (  7533 PWs)   bands (ev):

   -16.4293 -16.3960  -9.4537  -9.4410  -7.4306  -7.4221  -4.1827  -3.8354
     4.4431   4.5616   7.5148   8.0632

     occupation numbers 
     1.0000   1.0000   1.0000   1.0000   1.0000   1.0000   1.0000   1.0000
     0.0000   0.0000   0.0000   0.0000

          k = 0.1668 0.4815 0.0000 (  7529 PWs)   bands (ev):

   -15.0525 -15.0235 -11.3672 -11.3485  -8.0094  -7.9987  -2.7247  -2.4450
     2.5183   2.6720   9.4233   9.9175

     occupation numbers 
     1.0000   1.0000   1.0000   1.0000   1.0000   1.0000   1.0000   1.0000
     0.0000   0.0000   0.0000   0.0000

          k = 0.1668 0.5778 0.0000 (  7512 PWs)   bands (ev):

   -13.8126 -13.7986 -12.7961 -12.7860  -8.1952  -8.1839  -1.7663  -1.6292
     1.4870   1.5800   9.9929  10.1031

     occupation numbers 
     1.0000   1.0000   1.0000   1.0000   1.0000   1.0000   1.0000   1.0000
     0.0000   0.0000   0.0000   0.0000

          k = 0.2502 0.4333 0.0000 (  7541 PWs)   bands (ev):

   -15.2004 -15.1708 -10.4891 -10.4799  -8.9123  -8.9053  -2.8184  -2.5170
     2.8325   2.9449   9.2191   9.6932

     occupation numbers 
     1.0000   1.0000   1.0000   1.0000   1.0000   1.0000   1.0000   1.0000
     0.0000   0.0000   0.0000   0.0000

          k = 0.2502 0.5296 0.0000 (  7522 PWs)   bands (ev):

   -13.7767 -13.7530 -11.9126 -11.8970  -9.6231  -9.6113  -1.3901  -1.1809
     1.3189   1.4244  10.8482  10.9326

     occupation numbers 
     1.0000   1.0000   1.0000   1.0000   1.0000   1.0000   1.0000   1.0000
     0.0000   0.0000   0.0000   0.0000

          k = 0.3336 0.5778 0.0000 (  7524 PWs)   bands (ev):

   -12.5609 -12.5490 -12.5490 -12.5369 -10.5106 -10.5106  -0.0563   0.0698
     0.0699   0.2014  10.6758  10.6759

     occupation numbers 
     1.0000   1.0000   1.0000   1.0000   1.0000   1.0000   1.0446   0.4777
     0.4769   0.0008   0.0000   0.0000

     the Fermi energy is     0.0772 ev

!    total energy              =     -48.19074729 Ry
     estimated scf accuracy    <          1.3E-09 Ry
     smearing contrib. (-TS)   =      -0.00003220 Ry
     internal energy E=F+TS    =     -48.19071509 Ry

     The total energy is F=E-TS. E is the sum of the following terms:
     one-electron contribution =    -366.70512360 Ry
     hartree contribution      =     187.39597119 Ry
     xc contribution           =     -17.15704895 Ry
     ewald contribution        =     148.27548627 Ry

     convergence has been achieved in   9 iterations

     Forces acting on atoms (cartesian axes, Ry/au):

     atom    1 type  1   force =     0.00000000   -0.00000000    0.00002209
     atom    2 type  1   force =    -0.00000000    0.00000000    0.00005159
     atom    3 type  1   force =     0.00000000   -0.00000000   -0.00034293
     atom    4 type  1   force =    -0.00000000    0.00000000    0.00026925
     The non-local contrib.  to forces
     atom    1 type  1   force =     0.00000000   -0.00000000   -0.00002228
     atom    2 type  1   force =    -0.00000000    0.00000000    0.00016222
     atom    3 type  1   force =    -0.00000000    0.00000000   -0.00049543
     atom    4 type  1   force =    -0.00000000    0.00000000    0.00035190
     The ionic contribution  to forces
     atom    1 type  1   force =     0.00000852   -0.00000492  -11.87635321
     atom    2 type  1   force =    -0.00000852    0.00000492   11.87508338
     atom    3 type  1   force =    -0.00000853    0.00000492  -11.87533594
     atom    4 type  1   force =     0.00000853   -0.00000492   11.87660577
     The local contribution  to forces
     atom    1 type  1   force =     0.00000000    0.00000000   11.87638585
     atom    2 type  1   force =     0.00000000   -0.00000000  -11.87518934
     atom    3 type  1   force =    -0.00000676    0.00000390   11.87545721
     atom    4 type  1   force =     0.00000676   -0.00000390  -11.87666740
     The core correction contribution to forces
     atom    1 type  1   force =    -0.00000000    0.00000000   -0.00000082
     atom    2 type  1   force =     0.00000000   -0.00000000   -0.00000059
     atom    3 type  1   force =     0.00000050   -0.00000029    0.00001859
     atom    4 type  1   force =    -0.00000050    0.00000029   -0.00001679
     The Hubbard contrib.    to forces
     atom    1 type  1   force =     0.00000000    0.00000000    0.00000000
     atom    2 type  1   force =     0.00000000    0.00000000    0.00000000
     atom    3 type  1   force =     0.00000000    0.00000000    0.00000000
     atom    4 type  1   force =     0.00000000    0.00000000    0.00000000
     The SCF correction term to forces
     atom    1 type  1   force =    -0.00000000    0.00000000    0.00000000
     atom    2 type  1   force =     0.00000000   -0.00000000   -0.00000373
     atom    3 type  1   force =     0.00000000   -0.00000000    0.00000000
     atom    4 type  1   force =    -0.00000000    0.00000000   -0.00000386

     Total force =     0.000274     Total SCF correction =     0.000005


     Computing stress (Cartesian axis) and pressure

          total   stress  (Ry/bohr**3)                   (kbar)     P=       -0.66
  -0.00000559   0.00000000  -0.00000000           -0.82        0.00       -0.00
   0.00000000  -0.00000559   0.00000000            0.00       -0.82        0.00
   0.00000000  -0.00000000  -0.00000218            0.00       -0.00       -0.32

     kinetic stress (kbar)   5103.54     -0.00     -0.00
                               -0.00   5103.54      0.00
                               -0.00      0.00   5638.19

     local   stress (kbar) -91575.74      0.00     -0.00
                                0.00 -91575.74      0.00
                               -0.00      0.00  93101.82

     nonloc. stress (kbar)   -519.29      0.00     -0.00
                                0.00   -519.29      0.00
                               -0.00      0.00   -437.71

     hartree stress (kbar)  43839.34      0.00      0.00
                                0.00  43839.34     -0.00
                                0.00     -0.00 -43447.64

     exc-cor stress (kbar)   -404.22     -0.00      0.00
                               -0.00   -404.22     -0.00
                                0.00     -0.00   -452.19

     corecor stress (kbar)   -769.11      0.00      0.00
                                0.00   -769.11     -0.00
                                0.00     -0.00   -750.90

     ewald   stress (kbar)  44324.67     -0.01      0.00
                               -0.01  44324.66     -0.00
                                0.00     -0.00 -53651.89

     hubbard stress (kbar)      0.00      0.00      0.00
                                0.00      0.00      0.00
                                0.00      0.00      0.00

     DFT-D   stress (kbar)      0.00      0.00      0.00
                                0.00      0.00      0.00
                                0.00      0.00      0.00

     XDM     stress (kbar)      0.00      0.00      0.00
                                0.00      0.00      0.00
                                0.00      0.00      0.00

     dft-nl  stress (kbar)      0.00      0.00      0.00
                                0.00      0.00      0.00
                                0.00      0.00      0.00

     TS-vdW  stress (kbar)      0.00      0.00      0.00
                                0.00      0.00      0.00
                                0.00      0.00      0.00

     MDB     stress (kbar)      0.00      0.00      0.00
                                0.00      0.00      0.00
                                0.00      0.00      0.00

     3D-RISM stress (kbar)      0.00      0.00      0.00
                                0.00      0.00      0.00
                                0.00      0.00      0.00


     Writing all to output data dir ./tmp/C2L_AB_PBE.save/

     init_run     :      1.72s CPU      1.75s WALL (       2 calls)
     electrons    :    299.31s CPU    301.46s WALL (      27 calls)
     update_pot   :     11.82s CPU     11.92s WALL (      25 calls)
     forces       :      8.41s CPU      8.54s WALL (      27 calls)
     stress       :     26.16s CPU     27.88s WALL (      27 calls)

     Called by init_run:
     wfcinit      :      0.63s CPU      0.63s WALL (       2 calls)
     wfcinit:atom :      0.01s CPU      0.01s WALL (      38 calls)
     wfcinit:wfcr :      0.58s CPU      0.58s WALL (      38 calls)
     potinit      :      0.22s CPU      0.23s WALL (       2 calls)
     hinit0       :      0.75s CPU      0.76s WALL (       2 calls)

     Called by electrons:
     c_bands      :    261.49s CPU    261.54s WALL (     315 calls)
     sum_band     :     32.08s CPU     32.93s WALL (     315 calls)
     v_of_rho     :      4.52s CPU      5.12s WALL (     342 calls)
     v_h          :      0.34s CPU      0.36s WALL (     342 calls)
     v_xc         :      4.88s CPU      6.03s WALL (     396 calls)
     mix_rho      :      1.23s CPU      1.80s WALL (     315 calls)

     Called by c_bands:
     init_us_2    :      3.76s CPU      3.84s WALL (   13034 calls)
     init_us_2:cp :      3.74s CPU      3.80s WALL (   13034 calls)
     cegterg      :    254.44s CPU    254.16s WALL (    5985 calls)

     Called by sum_band:
     sum_band:wei :      0.07s CPU      0.07s WALL (     315 calls)
     sum_band:loo :     31.31s CPU     32.13s WALL (     315 calls)
     sum_band:buf :      0.56s CPU      0.58s WALL (    5985 calls)
     sum_band:ini :      1.73s CPU      1.77s WALL (    5985 calls)

     Called by *egterg:
     cdiaghg      :      6.81s CPU      6.96s WALL (   33345 calls)
     cegterg:over :     13.09s CPU     13.44s WALL (   27835 calls)
     cegterg:upda :     10.26s CPU     10.29s WALL (   27835 calls)
     cegterg:last :     12.69s CPU      9.85s WALL (   14974 calls)
     h_psi        :    204.26s CPU    205.16s WALL (   33858 calls)
     g_psi        :      1.15s CPU      1.49s WALL (   27835 calls)

     Called by h_psi:
     h_psi:calbec :     15.11s CPU     14.77s WALL (   33858 calls)
     vloc_psi     :    172.93s CPU    177.56s WALL (   33858 calls)
     add_vuspsi   :     14.82s CPU     11.22s WALL (   33858 calls)

     General routines
     calbec       :     17.35s CPU     16.98s WALL (   36423 calls)
     fft          :      3.09s CPU      3.24s WALL (    4093 calls)
     ffts         :      0.18s CPU      0.18s WALL (     315 calls)
     fftw         :    184.27s CPU    188.41s WALL (  507110 calls)

     Parallel routines

     PWSCF        :   5m47.72s CPU   5m51.92s WALL


   This run was terminated on:   9:55: 9   4Apr2024            

=------------------------------------------------------------------------------=
   JOB DONE.
=------------------------------------------------------------------------------=
