
     Program BANDS v.7.2 starts on 18Apr2024 at 15:38: 4 

     This program is part of the open-source Quantum ESPRESSO suite
     for quantum simulation of materials; please cite
         "P. Giannozzi et al., J. Phys.:Condens. Matter 21 395502 (2009);
         "P. Giannozzi et al., J. Phys.:Condens. Matter 29 465901 (2017);
         "P. Giannozzi et al., J. Chem. Phys. 152 154105 (2020);
          URL http://www.quantum-espresso.org", 
     in publications or presentations arising from this work. More details at
     http://www.quantum-espresso.org/quote

     Parallel version (MPI & OpenMP), running on       8 processor cores
     Number of MPI processes:                 8
     Threads/MPI process:                     1

     MPI processes distributed on     1 nodes
     R & G space division:  proc/nbgrp/npool/nimage =       8
     0 MiB available memory on the printing compute node when the environment starts


     Reading xml data from directory:

     ./tmp/CBN2L_AB_PBE_vdW.save/

     IMPORTANT: XC functional enforced from input :
     Exchange-correlation= VDW-DF2-B86R
                           (   1   4  26   0   2   0   0)
     Any further DFT definition will be discarded
     Please, verify this is what you really want


     Parallelization info
     --------------------
     sticks:   dense  smooth     PW     G-vecs:    dense   smooth      PW
     Min          53      53     15                 7137     7137    1187
     Max          55      55     18                 7150     7150    1218
     Sum         433     433    127                57141    57141    9537

     Using Slab Decomposition



     %%%%%%%%%%%%%%%%%%%%%%%%%%%%%%%%%%%%%%%%%%%%%%%%%%%%%%%%%%%%%%%%%%%%%%%%
     %                                                                      %
     % You are using vdW-DF, which was implemented by the Thonhauser group. %
     % Please cite the following two papers that made this development      %
     % possible and the two reviews that describe the various versions:     %
     %                                                                      %
     %   T. Thonhauser et al., PRL 115, 136402 (2015).                      %
     %   T. Thonhauser et al., PRB 76, 125112 (2007).                       %
     %   K. Berland et al., Rep. Prog. Phys. 78, 066501 (2015).             %
     %   D.C. Langreth et al., J. Phys.: Condens. Matter 21, 084203 (2009). %
     %                                                                      %
     % If you are calculating stress with vdW-DF, please also cite:         %
     %                                                                      %
     %   R. Sabatini et al., J. Phys.: Condens. Matter 24, 424209 (2012).   %
     %                                                                      %
     %%%%%%%%%%%%%%%%%%%%%%%%%%%%%%%%%%%%%%%%%%%%%%%%%%%%%%%%%%%%%%%%%%%%%%%%

     %%%%%%%%%%%%%%%%%%%%%%%%%%%%%%%%%%%%%%%%%%%%%%%%%%%%%%%%%%%%%%%%%%%%%%%%
     %                                                                      %
     %  vdW-DF NEWS:                                                        %
     %                                                                      %
     %  * vdW-DF3 is now available. DOI: 10.1021/acs.jctc.0c00471           %
     %    use with input_dft = 'vdW-DF3-opt1' or 'vdW-DF3-opt2'             %
     %                                                                      %
     %  * Unscreened and range-separated hybrid vdW-DF-cx functionals       %
     %    DOI: 10.1063/1.4986522 and 10.1088/1361-648X/ac2ad2               %
     %    use with input_dft = 'vdW-DF-cx0'    and 'vdW-DF-ahcx'            %
     %  * Unscreened and range-separated hybrid vdW-DF2-b86r functionals    %
     %    DOI: 10.1063/1.4986522 and DOI: 10.1103/PhysRevX.12.041003        %
     %    use with input_dft = 'vdW-DF2-br0' and 'vdW-DF2-ahbr'             %
     %                                                                      %
     %%%%%%%%%%%%%%%%%%%%%%%%%%%%%%%%%%%%%%%%%%%%%%%%%%%%%%%%%%%%%%%%%%%%%%%%


     Reading collected, re-writing distributed wavefunctions
     high-symmetry point:  0.0000 0.0000 0.0000   x coordinate   0.0000
     high-symmetry point: -0.3333 0.5774 0.0000   x coordinate   0.6667
     high-symmetry point:  0.0000 0.5774 0.0000   x coordinate   1.0000
     high-symmetry point:  0.0000 0.0000 0.0000   x coordinate   1.5773

     Plottable bands (eV) written to file Bande_CBN2L_AB_PBE_vdW.dat.gnu
     Bands written to file Bande_CBN2L_AB_PBE_vdW.dat

 **************************************************************************

                    xk=(   0.00000,   0.00000,   0.00000  )

     point group C_3v (3m)  
     there are  3 classes
     the character table:

       E     2C3   3s_v 
A_1    1.00  1.00  1.00
A_2    1.00  1.00 -1.00
E      2.00 -1.00  0.00

     the symmetry operations in each class and the name of the first element:

     E        1
                                                                 
     2C3      2    3
                                                                 
     3s_v     4    5    6
                                                                 

     Band symmetry, C_3v (3m)   point group:

     e(  1 -  1) =    -20.12033  eV     1   --> A_1  L_1       
     e(  2 -  2) =    -19.88234  eV     1   --> A_1  L_1       
     e(  3 -  3) =     -8.57051  eV     1   --> A_1  L_1       
     e(  4 -  4) =     -7.27177  eV     1   --> A_1  L_1       
     e(  5 -  6) =     -3.83808  eV     2   --> E    L_3       
     e(  7 -  8) =     -3.48208  eV     2   --> E    L_3       
     e(  9 -  9) =      2.29336  eV     1   --> A_1  L_1       
     e( 10 - 10) =      2.76925  eV     1   --> A_1  L_1       
     e( 11 - 11) =      3.92030  eV     1   --> A_1  L_1       
     e( 12 - 12) =      5.00415  eV     1   --> A_1  L_1       
     e( 13 - 13) =      5.24817  eV     1   --> A_1  L_1       
     e( 14 - 14) =      7.03674  eV     1   --> A_1  L_1       
     e( 15 - 16) =      7.43345  eV     2   --> E    L_3       
     e( 17 - 17) =      7.79966  eV     1   --> A_1  L_1       
     e( 18 - 19) =      9.64758  eV     2   --> E    L_3       
     e( 20 - 20) =      9.88696  eV     1   --> A_1  L_1       

 **************************************************************************

 **************************************************************************

                    xk=(  -0.01587,   0.02749,   0.00000  )

     point group C_1 (1)    
     there are  1 classes
     the character table:

       E    
A      1.00

     the symmetry operations in each class and the name of the first element:

     E        1
                                                                 

     Band symmetry, C_1 (1)     point group:

     e(  1 -  1) =    -20.10307  eV     1   --> A              
     e(  2 -  2) =    -19.86722  eV     1   --> A              
     e(  3 -  3) =     -8.54950  eV     1   --> A              
     e(  4 -  4) =     -7.25196  eV     1   --> A              
     e(  5 -  5) =     -3.91132  eV     1   --> A              
     e(  6 -  6) =     -3.87628  eV     1   --> A              
     e(  7 -  7) =     -3.54587  eV     1   --> A              
     e(  8 -  8) =     -3.51243  eV     1   --> A              
     e(  9 -  9) =      2.31809  eV     1   --> A              
     e( 10 - 10) =      2.79298  eV     1   --> A              
     e( 11 - 11) =      3.94477  eV     1   --> A              
     e( 12 - 12) =      5.02841  eV     1   --> A              
     e( 13 - 13) =      5.27098  eV     1   --> A              
     e( 14 - 14) =      7.05569  eV     1   --> A              
     e( 15 - 15) =      7.44414  eV     1   --> A              
     e( 16 - 16) =      7.50891  eV     1   --> A              
     e( 17 - 17) =      7.82329  eV     1   --> A              
     e( 18 - 18) =      9.63669  eV     1   --> A              
     e( 19 - 19) =      9.71443  eV     1   --> A              
     e( 20 - 20) =      9.89423  eV     1   --> A              

 **************************************************************************

 **************************************************************************

                    xk=(  -0.03175,   0.05499,   0.00000  )

     Band symmetry, C_1 (1)     point group:

     e(  1 -  1) =    -20.05137  eV     1   --> A              
     e(  2 -  2) =    -19.82189  eV     1   --> A              
     e(  3 -  3) =     -8.48639  eV     1   --> A              
     e(  4 -  4) =     -7.19267  eV     1   --> A              
     e(  5 -  5) =     -4.12390  eV     1   --> A              
     e(  6 -  6) =     -3.99025  eV     1   --> A              
     e(  7 -  7) =     -3.73175  eV     1   --> A              
     e(  8 -  8) =     -3.60293  eV     1   --> A              
     e(  9 -  9) =      2.39190  eV     1   --> A              
     e( 10 - 10) =      2.86405  eV     1   --> A              
     e( 11 - 11) =      4.01808  eV     1   --> A              
     e( 12 - 12) =      5.10104  eV     1   --> A              
     e( 13 - 13) =      5.33890  eV     1   --> A              
     e( 14 - 14) =      7.11162  eV     1   --> A              
     e( 15 - 15) =      7.47763  eV     1   --> A              
     e( 16 - 16) =      7.72325  eV     1   --> A              
     e( 17 - 17) =      7.89256  eV     1   --> A              
     e( 18 - 18) =      9.61071  eV     1   --> A              
     e( 19 - 19) =      9.89430  eV     1   --> A              
     e( 20 - 20) =      9.92245  eV     1   --> A              

 **************************************************************************

 **************************************************************************

                    xk=(  -0.04762,   0.08248,   0.00000  )

     Band symmetry, C_1 (1)     point group:

     e(  1 -  1) =    -19.96541  eV     1   --> A              
     e(  2 -  2) =    -19.74641  eV     1   --> A              
     e(  3 -  3) =     -8.38135  eV     1   --> A              
     e(  4 -  4) =     -7.09405  eV     1   --> A              
     e(  5 -  5) =     -4.45557  eV     1   --> A              
     e(  6 -  6) =     -4.17629  eV     1   --> A              
     e(  7 -  7) =     -4.02411  eV     1   --> A              
     e(  8 -  8) =     -3.75078  eV     1   --> A              
     e(  9 -  9) =      2.51392  eV     1   --> A              
     e( 10 - 10) =      2.98213  eV     1   --> A              
     e( 11 - 11) =      4.14002  eV     1   --> A              
     e( 12 - 12) =      5.22159  eV     1   --> A              
     e( 13 - 13) =      5.45050  eV     1   --> A              
     e( 14 - 14) =      7.20156  eV     1   --> A              
     e( 15 - 15) =      7.53789  eV     1   --> A              
     e( 16 - 16) =      8.00531  eV     1   --> A              
     e( 17 - 17) =      8.04482  eV     1   --> A              
     e( 18 - 18) =      9.57291  eV     1   --> A              
     e( 19 - 19) =      9.77914  eV     1   --> A              
     e( 20 - 20) =      9.92832  eV     1   --> A              

 **************************************************************************

 **************************************************************************

                    xk=(  -0.06349,   0.10997,   0.00000  )

     Band symmetry, C_1 (1)     point group:

     e(  1 -  1) =    -19.84568  eV     1   --> A              
     e(  2 -  2) =    -19.64087  eV     1   --> A              
     e(  3 -  3) =     -8.23478  eV     1   --> A              
     e(  4 -  4) =     -6.95668  eV     1   --> A              
     e(  5 -  5) =     -4.88144  eV     1   --> A              
     e(  6 -  6) =     -4.43157  eV     1   --> A              
     e(  7 -  7) =     -4.40034  eV     1   --> A              
     e(  8 -  8) =     -3.95185  eV     1   --> A              
     e(  9 -  9) =      2.68322  eV     1   --> A              
     e( 10 - 10) =      3.14669  eV     1   --> A              
     e( 11 - 11) =      4.31036  eV     1   --> A              
     e( 12 - 12) =      5.38948  eV     1   --> A              
     e( 13 - 13) =      5.60358  eV     1   --> A              
     e( 14 - 14) =      7.31978  eV     1   --> A              
     e( 15 - 15) =      7.62828  eV     1   --> A              
     e( 16 - 16) =      8.15858  eV     1   --> A              
     e( 17 - 17) =      8.42809  eV     1   --> A              
     e( 18 - 18) =      9.35156  eV     1   --> A              
     e( 19 - 19) =      9.60512  eV     1   --> A              
     e( 20 - 20) =      9.91913  eV     1   --> A              

 **************************************************************************

 **************************************************************************

                    xk=(  -0.07936,   0.13746,   0.00000  )

     Band symmetry, C_1 (1)     point group:

     e(  1 -  1) =    -19.69295  eV     1   --> A              
     e(  2 -  2) =    -19.50524  eV     1   --> A              
     e(  3 -  3) =     -8.04719  eV     1   --> A              
     e(  4 -  4) =     -6.78129  eV     1   --> A              
     e(  5 -  5) =     -5.37540  eV     1   --> A              
     e(  6 -  6) =     -4.84883  eV     1   --> A              
     e(  7 -  7) =     -4.73852  eV     1   --> A              
     e(  8 -  8) =     -4.20064  eV     1   --> A              
     e(  9 -  9) =      2.89907  eV     1   --> A              
     e( 10 - 10) =      3.35710  eV     1   --> A              
     e( 11 - 11) =      4.52885  eV     1   --> A              
     e( 12 - 12) =      5.60385  eV     1   --> A              
     e( 13 - 13) =      5.79505  eV     1   --> A              
     e( 14 - 14) =      7.45637  eV     1   --> A              
     e( 15 - 15) =      7.75247  eV     1   --> A              
     e( 16 - 16) =      8.34776  eV     1   --> A              
     e( 17 - 17) =      8.82311  eV     1   --> A              
     e( 18 - 18) =      8.88793  eV     1   --> A              
     e( 19 - 19) =      9.61583  eV     1   --> A              
     e( 20 - 20) =      9.87019  eV     1   --> A              

 **************************************************************************

 **************************************************************************

                    xk=(  -0.09524,   0.16496,   0.00000  )

     Band symmetry, C_1 (1)     point group:

     e(  1 -  1) =    -19.50871  eV     1   --> A              
     e(  2 -  2) =    -19.33906  eV     1   --> A              
     e(  3 -  3) =     -7.81906  eV     1   --> A              
     e(  4 -  4) =     -6.56894  eV     1   --> A              
     e(  5 -  5) =     -5.91580  eV     1   --> A              
     e(  6 -  6) =     -5.33693  eV     1   --> A              
     e(  7 -  7) =     -5.10178  eV     1   --> A              
     e(  8 -  8) =     -4.49066  eV     1   --> A              
     e(  9 -  9) =      3.16103  eV     1   --> A              
     e( 10 - 10) =      3.61247  eV     1   --> A              
     e( 11 - 11) =      4.79527  eV     1   --> A              
     e( 12 - 12) =      5.86272  eV     1   --> A              
     e( 13 - 13) =      6.02015  eV     1   --> A              
     e( 14 - 14) =      7.59247  eV     1   --> A              
     e( 15 - 15) =      7.91119  eV     1   --> A              
     e( 16 - 16) =      8.34414  eV     1   --> A              
     e( 17 - 17) =      8.56578  eV     1   --> A              
     e( 18 - 18) =      9.19208  eV     1   --> A              
     e( 19 - 19) =      9.67378  eV     1   --> A              
     e( 20 - 20) =      9.78597  eV     1   --> A              

 **************************************************************************

 **************************************************************************

                    xk=(  -0.11111,   0.19245,   0.00000  )

     Band symmetry, C_1 (1)     point group:

     e(  1 -  1) =    -19.29578  eV     1   --> A              
     e(  2 -  2) =    -19.14094  eV     1   --> A              
     e(  3 -  3) =     -7.55189  eV     1   --> A              
     e(  4 -  4) =     -6.48443  eV     1   --> A              
     e(  5 -  5) =     -6.32244  eV     1   --> A              
     e(  6 -  6) =     -5.85082  eV     1   --> A              
     e(  7 -  7) =     -5.50686  eV     1   --> A              
     e(  8 -  8) =     -4.81474  eV     1   --> A              
     e(  9 -  9) =      3.46880  eV     1   --> A              
     e( 10 - 10) =      3.91127  eV     1   --> A              
     e( 11 - 11) =      5.10927  eV     1   --> A              
     e( 12 - 12) =      6.15710  eV     1   --> A              
     e( 13 - 13) =      6.27292  eV     1   --> A              
     e( 14 - 14) =      7.66937  eV     1   --> A              
     e( 15 - 15) =      7.77033  eV     1   --> A              
     e( 16 - 16) =      8.10404  eV     1   --> A              
     e( 17 - 17) =      8.79900  eV     1   --> A              
     e( 18 - 18) =      9.51039  eV     1   --> A              
     e( 19 - 19) =      9.72031  eV     1   --> A              
     e( 20 - 20) =      9.78639  eV     1   --> A              

 **************************************************************************

 **************************************************************************

                    xk=(  -0.12698,   0.21994,   0.00000  )

     Band symmetry, C_1 (1)     point group:

     e(  1 -  1) =    -19.05899  eV     1   --> A              
     e(  2 -  2) =    -18.90780  eV     1   --> A              
     e(  3 -  3) =     -7.24878  eV     1   --> A              
     e(  4 -  4) =     -7.06659  eV     1   --> A              
     e(  5 -  5) =     -6.38640  eV     1   --> A              
     e(  6 -  6) =     -6.03084  eV     1   --> A              
     e(  7 -  7) =     -5.94501  eV     1   --> A              
     e(  8 -  8) =     -5.16542  eV     1   --> A              
     e(  9 -  9) =      3.82210  eV     1   --> A              
     e( 10 - 10) =      4.25059  eV     1   --> A              
     e( 11 - 11) =      5.47007  eV     1   --> A              
     e( 12 - 12) =      6.42610  eV     1   --> A              
     e( 13 - 13) =      6.57465  eV     1   --> A              
     e( 14 - 14) =      7.09823  eV     1   --> A              
     e( 15 - 15) =      7.74030  eV     1   --> A              
     e( 16 - 16) =      8.33157  eV     1   --> A              
     e( 17 - 17) =      9.04029  eV     1   --> A              
     e( 18 - 18) =      9.75551  eV     1   --> A              
     e( 19 - 19) =      9.80545  eV     1   --> A              
     e( 20 - 20) =      9.94767  eV     1   --> A              

 **************************************************************************

 **************************************************************************

                    xk=(  -0.14286,   0.24744,   0.00000  )

     Band symmetry, C_1 (1)     point group:

     e(  1 -  1) =    -18.80448  eV     1   --> A              
     e(  2 -  2) =    -18.63581  eV     1   --> A              
     e(  3 -  3) =     -7.65262  eV     1   --> A              
     e(  4 -  4) =     -6.99580  eV     1   --> A              
     e(  5 -  5) =     -6.82327  eV     1   --> A              
     e(  6 -  6) =     -6.40747  eV     1   --> A              
     e(  7 -  7) =     -5.71974  eV     1   --> A              
     e(  8 -  8) =     -5.53487  eV     1   --> A              
     e(  9 -  9) =      4.22048  eV     1   --> A              
     e( 10 - 10) =      4.62342  eV     1   --> A              
     e( 11 - 11) =      5.87416  eV     1   --> A              
     e( 12 - 12) =      6.39700  eV     1   --> A              
     e( 13 - 13) =      6.58202  eV     1   --> A              
     e( 14 - 14) =      6.96262  eV     1   --> A              
     e( 15 - 15) =      7.76931  eV     1   --> A              
     e( 16 - 16) =      8.59811  eV     1   --> A              
     e( 17 - 17) =      9.31007  eV     1   --> A              
     e( 18 - 18) =      9.98705  eV     1   --> A              
     e( 19 - 19) =     10.01965  eV     1   --> A              
     e( 20 - 20) =     10.16835  eV     1   --> A              

 **************************************************************************

 **************************************************************************

                    xk=(  -0.15873,   0.27493,   0.00000  )

     Band symmetry, C_1 (1)     point group:

     e(  1 -  1) =    -18.53652  eV     1   --> A              
     e(  2 -  2) =    -18.32380  eV     1   --> A              
     e(  3 -  3) =     -8.23403  eV     1   --> A              
     e(  4 -  4) =     -7.45466  eV     1   --> A              
     e(  5 -  5) =     -6.88648  eV     1   --> A              
     e(  6 -  6) =     -6.50693  eV     1   --> A              
     e(  7 -  7) =     -5.91813  eV     1   --> A              
     e(  8 -  8) =     -5.37466  eV     1   --> A              
     e(  9 -  9) =      4.66276  eV     1   --> A              
     e( 10 - 10) =      5.00701  eV     1   --> A              
     e( 11 - 11) =      5.72994  eV     1   --> A              
     e( 12 - 12) =      6.28349  eV     1   --> A              
     e( 13 - 13) =      6.51222  eV     1   --> A              
     e( 14 - 14) =      7.40401  eV     1   --> A              
     e( 15 - 15) =      7.94593  eV     1   --> A              
     e( 16 - 16) =      8.90392  eV     1   --> A              
     e( 17 - 17) =      9.63298  eV     1   --> A              
     e( 18 - 18) =     10.21639  eV     1   --> A              
     e( 19 - 19) =     10.32944  eV     1   --> A              
     e( 20 - 20) =     10.43456  eV     1   --> A              

 **************************************************************************

 **************************************************************************

                    xk=(  -0.17460,   0.30242,   0.00000  )

     Band symmetry, C_1 (1)     point group:

     e(  1 -  1) =    -18.25679  eV     1   --> A              
     e(  2 -  2) =    -17.97391  eV     1   --> A              
     e(  3 -  3) =     -8.80479  eV     1   --> A              
     e(  4 -  4) =     -7.95633  eV     1   --> A              
     e(  5 -  5) =     -7.37382  eV     1   --> A              
     e(  6 -  6) =     -6.31190  eV     1   --> A              
     e(  7 -  7) =     -6.09090  eV     1   --> A              
     e(  8 -  8) =     -5.00445  eV     1   --> A              
     e(  9 -  9) =      5.03296  eV     1   --> A              
     e( 10 - 10) =      5.13897  eV     1   --> A              
     e( 11 - 11) =      5.31964  eV     1   --> A              
     e( 12 - 12) =      6.25626  eV     1   --> A              
     e( 13 - 13) =      6.87168  eV     1   --> A              
     e( 14 - 14) =      7.89089  eV     1   --> A              
     e( 15 - 15) =      8.28453  eV     1   --> A              
     e( 16 - 16) =      9.24661  eV     1   --> A              
     e( 17 - 17) =     10.00504  eV     1   --> A              
     e( 18 - 18) =     10.42693  eV     1   --> A              
     e( 19 - 19) =     10.65616  eV     1   --> A              
     e( 20 - 20) =     10.79799  eV     1   --> A              

 **************************************************************************

 **************************************************************************

                    xk=(  -0.19047,   0.32992,   0.00000  )

     Band symmetry, C_1 (1)     point group:

     e(  1 -  1) =    -17.96737  eV     1   --> A              
     e(  2 -  2) =    -17.58911  eV     1   --> A              
     e(  3 -  3) =     -9.36044  eV     1   --> A              
     e(  4 -  4) =     -8.43400  eV     1   --> A              
     e(  5 -  5) =     -7.86273  eV     1   --> A              
     e(  6 -  6) =     -6.69884  eV     1   --> A              
     e(  7 -  7) =     -5.64837  eV     1   --> A              
     e(  8 -  8) =     -4.61252  eV     1   --> A              
     e(  9 -  9) =      4.34967  eV     1   --> A              
     e( 10 - 10) =      5.20588  eV     1   --> A              
     e( 11 - 11) =      5.69809  eV     1   --> A              
     e( 12 - 12) =      6.41565  eV     1   --> A              
     e( 13 - 13) =      7.41467  eV     1   --> A              
     e( 14 - 14) =      8.41542  eV     1   --> A              
     e( 15 - 15) =      8.71957  eV     1   --> A              
     e( 16 - 16) =      9.62290  eV     1   --> A              
     e( 17 - 17) =     10.40605  eV     1   --> A              
     e( 18 - 18) =     10.63327  eV     1   --> A              
     e( 19 - 19) =     10.96875  eV     1   --> A              
     e( 20 - 20) =     11.24973  eV     1   --> A              

 **************************************************************************

 **************************************************************************

                    xk=(  -0.20635,   0.35741,   0.00000  )

     Band symmetry, C_1 (1)     point group:

     e(  1 -  1) =    -17.67229  eV     1   --> A              
     e(  2 -  2) =    -17.17200  eV     1   --> A              
     e(  3 -  3) =     -9.89749  eV     1   --> A              
     e(  4 -  4) =     -8.87721  eV     1   --> A              
     e(  5 -  5) =     -8.34720  eV     1   --> A              
     e(  6 -  6) =     -7.08386  eV     1   --> A              
     e(  7 -  7) =     -5.17507  eV     1   --> A              
     e(  8 -  8) =     -4.20500  eV     1   --> A              
     e(  9 -  9) =      3.67228  eV     1   --> A              
     e( 10 - 10) =      4.83013  eV     1   --> A              
     e( 11 - 11) =      6.26797  eV     1   --> A              
     e( 12 - 12) =      6.87391  eV     1   --> A              
     e( 13 - 13) =      8.00933  eV     1   --> A              
     e( 14 - 14) =      8.96230  eV     1   --> A              
     e( 15 - 15) =      9.21657  eV     1   --> A              
     e( 16 - 16) =     10.02743  eV     1   --> A              
     e( 17 - 17) =     10.77231  eV     1   --> A              
     e( 18 - 18) =     10.86852  eV     1   --> A              
     e( 19 - 19) =     11.29863  eV     1   --> A              
     e( 20 - 20) =     11.72938  eV     1   --> A              

 **************************************************************************

 **************************************************************************

                    xk=(  -0.22222,   0.38490,   0.00000  )

     Band symmetry, C_1 (1)     point group:

     e(  1 -  1) =    -17.37776  eV     1   --> A              
     e(  2 -  2) =    -16.72494  eV     1   --> A              
     e(  3 -  3) =    -10.41335  eV     1   --> A              
     e(  4 -  4) =     -9.27642  eV     1   --> A              
     e(  5 -  5) =     -8.82126  eV     1   --> A              
     e(  6 -  6) =     -7.46027  eV     1   --> A              
     e(  7 -  7) =     -4.67815  eV     1   --> A              
     e(  8 -  8) =     -3.78910  eV     1   --> A              
     e(  9 -  9) =      3.01069  eV     1   --> A              
     e( 10 - 10) =      4.38164  eV     1   --> A              
     e( 11 - 11) =      6.88265  eV     1   --> A              
     e( 12 - 12) =      7.43689  eV     1   --> A              
     e( 13 - 13) =      8.64697  eV     1   --> A              
     e( 14 - 14) =      9.49380  eV     1   --> A              
     e( 15 - 15) =      9.76863  eV     1   --> A              
     e( 16 - 16) =     10.45365  eV     1   --> A              
     e( 17 - 17) =     10.97669  eV     1   --> A              
     e( 18 - 18) =     11.22096  eV     1   --> A              
     e( 19 - 19) =     11.63443  eV     1   --> A              
     e( 20 - 20) =     12.20070  eV     1   --> A              

 **************************************************************************

 **************************************************************************

                    xk=(  -0.23809,   0.41239,   0.00000  )

     Band symmetry, C_1 (1)     point group:

     e(  1 -  1) =    -17.09218  eV     1   --> A              
     e(  2 -  2) =    -16.25053  eV     1   --> A              
     e(  3 -  3) =    -10.90589  eV     1   --> A              
     e(  4 -  4) =     -9.62171  eV     1   --> A              
     e(  5 -  5) =     -9.27949  eV     1   --> A              
     e(  6 -  6) =     -7.82404  eV     1   --> A              
     e(  7 -  7) =     -4.16504  eV     1   --> A              
     e(  8 -  8) =     -3.37392  eV     1   --> A              
     e(  9 -  9) =      2.36995  eV     1   --> A              
     e( 10 - 10) =      3.93654  eV     1   --> A              
     e( 11 - 11) =      7.53600  eV     1   --> A              
     e( 12 - 12) =      8.04523  eV     1   --> A              
     e( 13 - 13) =      9.31298  eV     1   --> A              
     e( 14 - 14) =      9.95011  eV     1   --> A              
     e( 15 - 15) =     10.36538  eV     1   --> A              
     e( 16 - 16) =     10.89049  eV     1   --> A              
     e( 17 - 17) =     11.14303  eV     1   --> A              
     e( 18 - 18) =     11.53529  eV     1   --> A              
     e( 19 - 19) =     11.93210  eV     1   --> A              
     e( 20 - 20) =     12.45201  eV     1   --> A              

 **************************************************************************

 **************************************************************************

                    xk=(  -0.25397,   0.43989,   0.00000  )

     Band symmetry, C_1 (1)     point group:

     e(  1 -  1) =    -16.82617  eV     1   --> A              
     e(  2 -  2) =    -15.75230  eV     1   --> A              
     e(  3 -  3) =    -11.37368  eV     1   --> A              
     e(  4 -  4) =     -9.90315  eV     1   --> A              
     e(  5 -  5) =     -9.71512  eV     1   --> A              
     e(  6 -  6) =     -8.17126  eV     1   --> A              
     e(  7 -  7) =     -3.64699  eV     1   --> A              
     e(  8 -  8) =     -2.96891  eV     1   --> A              
     e(  9 -  9) =      1.75409  eV     1   --> A              
     e( 10 - 10) =      3.52657  eV     1   --> A              
     e( 11 - 11) =      8.22254  eV     1   --> A              
     e( 12 - 12) =      8.66394  eV     1   --> A              
     e( 13 - 13) =      9.91014  eV     1   --> A              
     e( 14 - 14) =     10.33775  eV     1   --> A              
     e( 15 - 15) =     10.91379  eV     1   --> A              
     e( 16 - 16) =     11.28953  eV     1   --> A              
     e( 17 - 17) =     11.37196  eV     1   --> A              
     e( 18 - 18) =     11.74348  eV     1   --> A              
     e( 19 - 19) =     12.16461  eV     1   --> A              
     e( 20 - 20) =     12.43425  eV     1   --> A              

 **************************************************************************

 **************************************************************************

                    xk=(  -0.26984,   0.46738,   0.00000  )

     Band symmetry, C_1 (1)     point group:

     e(  1 -  1) =    -16.59173  eV     1   --> A              
     e(  2 -  2) =    -15.23516  eV     1   --> A              
     e(  3 -  3) =    -11.81530  eV     1   --> A              
     e(  4 -  4) =    -10.14530  eV     1   --> A              
     e(  5 -  5) =    -10.08598  eV     1   --> A              
     e(  6 -  6) =     -8.49773  eV     1   --> A              
     e(  7 -  7) =     -3.14518  eV     1   --> A              
     e(  8 -  8) =     -2.57797  eV     1   --> A              
     e(  9 -  9) =      1.16671  eV     1   --> A              
     e( 10 - 10) =      3.17352  eV     1   --> A              
     e( 11 - 11) =      8.93300  eV     1   --> A              
     e( 12 - 12) =      9.22945  eV     1   --> A              
     e( 13 - 13) =     10.10833  eV     1   --> A              
     e( 14 - 14) =     10.94213  eV     1   --> A              
     e( 15 - 15) =     11.17872  eV     1   --> A              
     e( 16 - 16) =     11.50907  eV     1   --> A              
     e( 17 - 17) =     11.78147  eV     1   --> A              
     e( 18 - 18) =     12.01207  eV     1   --> A              
     e( 19 - 19) =     12.52517  eV     1   --> A              
     e( 20 - 20) =     12.65093  eV     1   --> A              

 **************************************************************************

 **************************************************************************

                    xk=(  -0.28571,   0.49487,   0.00000  )

     Band symmetry, C_1 (1)     point group:

     e(  1 -  1) =    -16.40107  eV     1   --> A              
     e(  2 -  2) =    -14.70759  eV     1   --> A              
     e(  3 -  3) =    -12.22991  eV     1   --> A              
     e(  4 -  4) =    -10.50333  eV     1   --> A              
     e(  5 -  5) =    -10.22000  eV     1   --> A              
     e(  6 -  6) =     -8.79798  eV     1   --> A              
     e(  7 -  7) =     -2.70573  eV     1   --> A              
     e(  8 -  8) =     -2.18563  eV     1   --> A              
     e(  9 -  9) =      0.61029  eV     1   --> A              
     e( 10 - 10) =      2.89491  eV     1   --> A              
     e( 11 - 11) =      9.59267  eV     1   --> A              
     e( 12 - 12) =      9.64938  eV     1   --> A              
     e( 13 - 13) =     10.08260  eV     1   --> A              
     e( 14 - 14) =     11.32510  eV     1   --> A              
     e( 15 - 15) =     11.48907  eV     1   --> A              
     e( 16 - 16) =     11.85436  eV     1   --> A              
     e( 17 - 17) =     12.08034  eV     1   --> A              
     e( 18 - 18) =     12.50770  eV     1   --> A              
     e( 19 - 19) =     12.93838  eV     1   --> A              
     e( 20 - 20) =     13.12067  eV     1   --> A              

 **************************************************************************

 **************************************************************************

                    xk=(  -0.30158,   0.52237,   0.00000  )

     Band symmetry, C_1 (1)     point group:

     e(  1 -  1) =    -16.26378  eV     1   --> A              
     e(  2 -  2) =    -14.18471  eV     1   --> A              
     e(  3 -  3) =    -12.61680  eV     1   --> A              
     e(  4 -  4) =    -10.82227  eV     1   --> A              
     e(  5 -  5) =    -10.25683  eV     1   --> A              
     e(  6 -  6) =     -9.06190  eV     1   --> A              
     e(  7 -  7) =     -2.39387  eV     1   --> A              
     e(  8 -  8) =     -1.75693  eV     1   --> A              
     e(  9 -  9) =      0.08722  eV     1   --> A              
     e( 10 - 10) =      2.70289  eV     1   --> A              
     e( 11 - 11) =      9.65370  eV     1   --> A              
     e( 12 - 12) =     10.03114  eV     1   --> A              
     e( 13 - 13) =     10.32153  eV     1   --> A              
     e( 14 - 14) =     11.58157  eV     1   --> A              
     e( 15 - 15) =     11.73068  eV     1   --> A              
     e( 16 - 16) =     12.27355  eV     1   --> A              
     e( 17 - 17) =     12.62469  eV     1   --> A              
     e( 18 - 18) =     12.83374  eV     1   --> A              
     e( 19 - 19) =     13.36890  eV     1   --> A              
     e( 20 - 20) =     13.77591  eV     1   --> A              

 **************************************************************************

 **************************************************************************

                    xk=(  -0.31746,   0.54986,   0.00000  )

     Band symmetry, C_1 (1)     point group:

     e(  1 -  1) =    -16.18406  eV     1   --> A              
     e(  2 -  2) =    -13.69704  eV     1   --> A              
     e(  3 -  3) =    -12.97537  eV     1   --> A              
     e(  4 -  4) =    -11.06039  eV     1   --> A              
     e(  5 -  5) =    -10.22876  eV     1   --> A              
     e(  6 -  6) =     -9.26592  eV     1   --> A              
     e(  7 -  7) =     -2.22719  eV     1   --> A              
     e(  8 -  8) =     -1.29931  eV     1   --> A              
     e(  9 -  9) =     -0.40039  eV     1   --> A              
     e( 10 - 10) =      2.59893  eV     1   --> A              
     e( 11 - 11) =      9.59476  eV     1   --> A              
     e( 12 - 12) =      9.96922  eV     1   --> A              
     e( 13 - 13) =     10.82485  eV     1   --> A              
     e( 14 - 14) =     11.67273  eV     1   --> A              
     e( 15 - 15) =     12.21354  eV     1   --> A              
     e( 16 - 16) =     12.35043  eV     1   --> A              
     e( 17 - 17) =     13.01312  eV     1   --> A              
     e( 18 - 18) =     13.32532  eV     1   --> A              
     e( 19 - 19) =     13.68602  eV     1   --> A              
     e( 20 - 20) =     14.28558  eV     1   --> A              

 **************************************************************************

 **************************************************************************

                    xk=(  -0.33333,   0.57735,   0.00000  )

     point group C_3 (3)    
     there are  3 classes
     the character table:

       E     C3    C3^2 
A      1.00  1.00  1.00
E      1.00 -0.50 -0.50
E*     1.00 -0.50 -0.50
     imaginary part
A      0.00  0.00  0.00
E      0.00  0.87 -0.87
E*     0.00 -0.87  0.87

     the symmetry operations in each class and the name of the first element:

     E        1
                                                                 
     C3       2
                                                                 
     C3^2     3
                                                                 

     Band symmetry, C_3 (3)     point group:

     e(  1 -  1) =    -16.15916  eV     1   --> E              
     e(  2 -  2) =    -13.30697  eV     1   -->   ?
     e(  3 -  3) =    -13.30313  eV     1   -->   ?
     e(  4 -  4) =    -11.15849  eV     1   --> E              
     e(  5 -  5) =    -10.19812  eV     1   --> E*             
     e(  6 -  6) =     -9.35283  eV     1   --> A              
     e(  7 -  7) =     -2.17848  eV     1   --> E              
     e(  8 -  8) =     -0.86776  eV     1   --> A              
     e(  9 -  9) =     -0.83507  eV     1   --> E*             
     e( 10 - 10) =      2.56960  eV     1   --> A              
     e( 11 - 11) =      9.56214  eV     1   --> E              
     e( 12 - 12) =      9.93915  eV     1   --> E*             
     e( 13 - 13) =     10.98408  eV     1   --> A              
     e( 14 - 14) =     11.76345  eV     1   --> E*             
     e( 15 - 15) =     12.32760  eV     1   --> E              
     e( 16 - 16) =     12.45974  eV     1   --> A              
     e( 17 - 17) =     13.24159  eV     1   --> E*             
     e( 18 - 18) =     13.30372  eV     1   --> E              
     e( 19 - 19) =     14.05566  eV     1   --> A              
     e( 20 - 20) =     14.19712  eV     1   -->   ?

 **************************************************************************

 **************************************************************************

                    xk=(  -0.30303,   0.57735,   0.00000  )

     point group C_1 (1)    
     there are  1 classes
     the character table:

       E    
A      1.00

     the symmetry operations in each class and the name of the first element:

     E        1
                                                                 

     Band symmetry, C_1 (1)     point group:

     e(  1 -  1) =    -16.17861  eV     1   --> A              
     e(  2 -  2) =    -13.59258  eV     1   --> A              
     e(  3 -  3) =    -13.09658  eV     1   --> A              
     e(  4 -  4) =    -11.04794  eV     1   --> A              
     e(  5 -  5) =    -10.24311  eV     1   --> A              
     e(  6 -  6) =     -9.26105  eV     1   --> A              
     e(  7 -  7) =     -2.21410  eV     1   --> A              
     e(  8 -  8) =     -1.24633  eV     1   --> A              
     e(  9 -  9) =     -0.45984  eV     1   --> A              
     e( 10 - 10) =      2.58759  eV     1   --> A              
     e( 11 - 11) =      9.59898  eV     1   --> A              
     e( 12 - 12) =      9.97218  eV     1   --> A              
     e( 13 - 13) =     10.89979  eV     1   --> A              
     e( 14 - 14) =     11.64599  eV     1   --> A              
     e( 15 - 15) =     12.21830  eV     1   --> A              
     e( 16 - 16) =     12.34838  eV     1   --> A              
     e( 17 - 17) =     13.02674  eV     1   --> A              
     e( 18 - 18) =     13.28825  eV     1   --> A              
     e( 19 - 19) =     13.89616  eV     1   --> A              
     e( 20 - 20) =     14.10771  eV     1   --> A              

 **************************************************************************

 **************************************************************************

                    xk=(  -0.27272,   0.57735,   0.00000  )

     Band symmetry, C_1 (1)     point group:

     e(  1 -  1) =    -16.22963  eV     1   --> A              
     e(  2 -  2) =    -13.85317  eV     1   --> A              
     e(  3 -  3) =    -13.06666  eV     1   --> A              
     e(  4 -  4) =    -10.72547  eV     1   --> A              
     e(  5 -  5) =    -10.35800  eV     1   --> A              
     e(  6 -  6) =     -9.01602  eV     1   --> A              
     e(  7 -  7) =     -2.30436  eV     1   --> A              
     e(  8 -  8) =     -1.60440  eV     1   --> A              
     e(  9 -  9) =     -0.11908  eV     1   --> A              
     e( 10 - 10) =      2.62510  eV     1   --> A              
     e( 11 - 11) =      9.71260  eV     1   --> A              
     e( 12 - 12) =     10.06822  eV     1   --> A              
     e( 13 - 13) =     10.70917  eV     1   --> A              
     e( 14 - 14) =     11.38592  eV     1   --> A              
     e( 15 - 15) =     11.76052  eV     1   --> A              
     e( 16 - 16) =     12.14615  eV     1   --> A              
     e( 17 - 17) =     12.76203  eV     1   --> A              
     e( 18 - 18) =     13.01041  eV     1   --> A              
     e( 19 - 19) =     13.62238  eV     1   --> A              
     e( 20 - 20) =     13.77697  eV     1   --> A              

 **************************************************************************

 **************************************************************************

                    xk=(  -0.24242,   0.57735,   0.00000  )

     Band symmetry, C_1 (1)     point group:

     e(  1 -  1) =    -16.30132  eV     1   --> A              
     e(  2 -  2) =    -14.08672  eV     1   --> A              
     e(  3 -  3) =    -13.14854  eV     1   --> A              
     e(  4 -  4) =    -10.49788  eV     1   --> A              
     e(  5 -  5) =    -10.26367  eV     1   --> A              
     e(  6 -  6) =     -8.67979  eV     1   --> A              
     e(  7 -  7) =     -2.42754  eV     1   --> A              
     e(  8 -  8) =     -1.92524  eV     1   --> A              
     e(  9 -  9) =      0.16333  eV     1   --> A              
     e( 10 - 10) =      2.66199  eV     1   --> A              
     e( 11 - 11) =      9.89082  eV     1   --> A              
     e( 12 - 12) =     10.17593  eV     1   --> A              
     e( 13 - 13) =     10.45646  eV     1   --> A              
     e( 14 - 14) =     11.00860  eV     1   --> A              
     e( 15 - 15) =     11.20206  eV     1   --> A              
     e( 16 - 16) =     11.89947  eV     1   --> A              
     e( 17 - 17) =     12.49037  eV     1   --> A              
     e( 18 - 18) =     12.65394  eV     1   --> A              
     e( 19 - 19) =     13.31691  eV     1   --> A              
     e( 20 - 20) =     13.42940  eV     1   --> A              

 **************************************************************************

 **************************************************************************

                    xk=(  -0.21212,   0.57735,   0.00000  )

     Band symmetry, C_1 (1)     point group:

     e(  1 -  1) =    -16.38378  eV     1   --> A              
     e(  2 -  2) =    -14.29307  eV     1   --> A              
     e(  3 -  3) =    -13.27577  eV     1   --> A              
     e(  4 -  4) =    -10.63674  eV     1   --> A              
     e(  5 -  5) =     -9.73755  eV     1   --> A              
     e(  6 -  6) =     -8.29574  eV     1   --> A              
     e(  7 -  7) =     -2.56645  eV     1   --> A              
     e(  8 -  8) =     -2.20756  eV     1   --> A              
     e(  9 -  9) =      0.38610  eV     1   --> A              
     e( 10 - 10) =      2.68684  eV     1   --> A              
     e( 11 - 11) =      9.89163  eV     1   --> A              
     e( 12 - 12) =     10.05517  eV     1   --> A              
     e( 13 - 13) =     10.30565  eV     1   --> A              
     e( 14 - 14) =     10.61708  eV     1   --> A              
     e( 15 - 15) =     10.87995  eV     1   --> A              
     e( 16 - 16) =     11.66172  eV     1   --> A              
     e( 17 - 17) =     12.09945  eV     1   --> A              
     e( 18 - 18) =     12.45917  eV     1   --> A              
     e( 19 - 19) =     13.03572  eV     1   --> A              
     e( 20 - 20) =     13.10412  eV     1   --> A              

 **************************************************************************

 **************************************************************************

                    xk=(  -0.18182,   0.57735,   0.00000  )

     Band symmetry, C_1 (1)     point group:

     e(  1 -  1) =    -16.46875  eV     1   --> A              
     e(  2 -  2) =    -14.47212  eV     1   --> A              
     e(  3 -  3) =    -13.41213  eV     1   --> A              
     e(  4 -  4) =    -10.76416  eV     1   --> A              
     e(  5 -  5) =     -9.19376  eV     1   --> A              
     e(  6 -  6) =     -7.89286  eV     1   --> A              
     e(  7 -  7) =     -2.70889  eV     1   --> A              
     e(  8 -  8) =     -2.44986  eV     1   --> A              
     e(  9 -  9) =      0.55285  eV     1   --> A              
     e( 10 - 10) =      2.69616  eV     1   --> A              
     e( 11 - 11) =      9.20750  eV     1   --> A              
     e( 12 - 12) =      9.76918  eV     1   --> A              
     e( 13 - 13) =     10.36291  eV     1   --> A              
     e( 14 - 14) =     10.60814  eV     1   --> A              
     e( 15 - 15) =     10.72925  eV     1   --> A              
     e( 16 - 16) =     11.47501  eV     1   --> A              
     e( 17 - 17) =     11.70471  eV     1   --> A              
     e( 18 - 18) =     12.38852  eV     1   --> A              
     e( 19 - 19) =     12.81284  eV     1   --> A              
     e( 20 - 20) =     12.82777  eV     1   --> A              

 **************************************************************************

 **************************************************************************

                    xk=(  -0.15151,   0.57735,   0.00000  )

     Band symmetry, C_1 (1)     point group:

     e(  1 -  1) =    -16.54967  eV     1   --> A              
     e(  2 -  2) =    -14.62374  eV     1   --> A              
     e(  3 -  3) =    -13.54024  eV     1   --> A              
     e(  4 -  4) =    -10.87533  eV     1   --> A              
     e(  5 -  5) =     -8.66350  eV     1   --> A              
     e(  6 -  6) =     -7.49482  eV     1   --> A              
     e(  7 -  7) =     -2.84634  eV     1   --> A              
     e(  8 -  8) =     -2.65010  eV     1   --> A              
     e(  9 -  9) =      0.67181  eV     1   --> A              
     e( 10 - 10) =      2.69204  eV     1   --> A              
     e( 11 - 11) =      8.46664  eV     1   --> A              
     e( 12 - 12) =      9.31161  eV     1   --> A              
     e( 13 - 13) =     10.41523  eV     1   --> A              
     e( 14 - 14) =     10.45513  eV     1   --> A              
     e( 15 - 15) =     10.80237  eV     1   --> A              
     e( 16 - 16) =     11.34708  eV     1   --> A              
     e( 17 - 17) =     11.46081  eV     1   --> A              
     e( 18 - 18) =     12.32492  eV     1   --> A              
     e( 19 - 19) =     12.58180  eV     1   --> A              
     e( 20 - 20) =     12.73754  eV     1   --> A              

 **************************************************************************

 **************************************************************************

                    xk=(  -0.12121,   0.57735,   0.00000  )

     Band symmetry, C_1 (1)     point group:

     e(  1 -  1) =    -16.62160  eV     1   --> A              
     e(  2 -  2) =    -14.74786  eV     1   --> A              
     e(  3 -  3) =    -13.65141  eV     1   --> A              
     e(  4 -  4) =    -10.96796  eV     1   --> A              
     e(  5 -  5) =     -8.17385  eV     1   --> A              
     e(  6 -  6) =     -7.12435  eV     1   --> A              
     e(  7 -  7) =     -2.97256  eV     1   --> A              
     e(  8 -  8) =     -2.80776  eV     1   --> A              
     e(  9 -  9) =      0.75222  eV     1   --> A              
     e( 10 - 10) =      2.67904  eV     1   --> A              
     e( 11 - 11) =      7.77909  eV     1   --> A              
     e( 12 - 12) =      8.84665  eV     1   --> A              
     e( 13 - 13) =     10.25826  eV     1   --> A              
     e( 14 - 14) =     10.45029  eV     1   --> A              
     e( 15 - 15) =     10.76066  eV     1   --> A              
     e( 16 - 16) =     11.12665  eV     1   --> A              
     e( 17 - 17) =     11.55904  eV     1   --> A              
     e( 18 - 18) =     12.20749  eV     1   --> A              
     e( 19 - 19) =     12.39629  eV     1   --> A              
     e( 20 - 20) =     12.77056  eV     1   --> A              

 **************************************************************************

 **************************************************************************

                    xk=(  -0.09091,   0.57735,   0.00000  )

     Band symmetry, C_1 (1)     point group:

     e(  1 -  1) =    -16.68091  eV     1   --> A              
     e(  2 -  2) =    -14.84446  eV     1   --> A              
     e(  3 -  3) =    -13.74105  eV     1   --> A              
     e(  4 -  4) =    -11.04085  eV     1   --> A              
     e(  5 -  5) =     -7.75116  eV     1   --> A              
     e(  6 -  6) =     -6.80378  eV     1   --> A              
     e(  7 -  7) =     -3.08048  eV     1   --> A              
     e(  8 -  8) =     -2.92497  eV     1   --> A              
     e(  9 -  9) =      0.80372  eV     1   --> A              
     e( 10 - 10) =      2.66246  eV     1   --> A              
     e( 11 - 11) =      7.19270  eV     1   --> A              
     e( 12 - 12) =      8.42643  eV     1   --> A              
     e( 13 - 13) =     10.13391  eV     1   --> A              
     e( 14 - 14) =     10.39927  eV     1   --> A              
     e( 15 - 15) =     10.67438  eV     1   --> A              
     e( 16 - 16) =     10.95872  eV     1   --> A              
     e( 17 - 17) =     11.70541  eV     1   --> A              
     e( 18 - 18) =     12.08870  eV     1   --> A              
     e( 19 - 19) =     12.26841  eV     1   --> A              
     e( 20 - 20) =     12.80740  eV     1   --> A              

 **************************************************************************

 **************************************************************************

                    xk=(  -0.06061,   0.57735,   0.00000  )

     Band symmetry, C_1 (1)     point group:

     e(  1 -  1) =    -16.72496  eV     1   --> A              
     e(  2 -  2) =    -14.91349  eV     1   --> A              
     e(  3 -  3) =    -13.80647  eV     1   --> A              
     e(  4 -  4) =    -11.09327  eV     1   --> A              
     e(  5 -  5) =     -7.42227  eV     1   --> A              
     e(  6 -  6) =     -6.55475  eV     1   --> A              
     e(  7 -  7) =     -3.16266  eV     1   --> A              
     e(  8 -  8) =     -3.00565  eV     1   --> A              
     e(  9 -  9) =      0.83446  eV     1   --> A              
     e( 10 - 10) =      2.64706  eV     1   --> A              
     e( 11 - 11) =      6.74310  eV     1   --> A              
     e( 12 - 12) =      8.09386  eV     1   --> A              
     e( 13 - 13) =     10.04500  eV     1   --> A              
     e( 14 - 14) =     10.33911  eV     1   --> A              
     e( 15 - 15) =     10.60224  eV     1   --> A              
     e( 16 - 16) =     10.84475  eV     1   --> A              
     e( 17 - 17) =     11.79109  eV     1   --> A              
     e( 18 - 18) =     11.99931  eV     1   --> A              
     e( 19 - 19) =     12.20670  eV     1   --> A              
     e( 20 - 20) =     12.81408  eV     1   --> A              

 **************************************************************************

 **************************************************************************

                    xk=(  -0.03030,   0.57735,   0.00000  )

     Band symmetry, C_1 (1)     point group:

     e(  1 -  1) =    -16.75204  eV     1   --> A              
     e(  2 -  2) =    -14.95491  eV     1   --> A              
     e(  3 -  3) =    -13.84620  eV     1   --> A              
     e(  4 -  4) =    -11.12485  eV     1   --> A              
     e(  5 -  5) =     -7.21248  eV     1   --> A              
     e(  6 -  6) =     -6.39637  eV     1   --> A              
     e(  7 -  7) =     -3.21378  eV     1   --> A              
     e(  8 -  8) =     -3.05306  eV     1   --> A              
     e(  9 -  9) =      0.85036  eV     1   --> A              
     e( 10 - 10) =      2.63635  eV     1   --> A              
     e( 11 - 11) =      6.45945  eV     1   --> A              
     e( 12 - 12) =      7.88087  eV     1   --> A              
     e( 13 - 13) =      9.99157  eV     1   --> A              
     e( 14 - 14) =     10.29508  eV     1   --> A              
     e( 15 - 15) =     10.55744  eV     1   --> A              
     e( 16 - 16) =     10.77829  eV     1   --> A              
     e( 17 - 17) =     11.81190  eV     1   --> A              
     e( 18 - 18) =     11.94552  eV     1   --> A              
     e( 19 - 19) =     12.19594  eV     1   --> A              
     e( 20 - 20) =     12.80394  eV     1   --> A              

 **************************************************************************

 **************************************************************************

                    xk=(   0.00000,   0.57735,   0.00000  )

     point group C_s (m)    
     there are  2 classes
     the character table:

       E     s    
A'     1.00  1.00
A''    1.00 -1.00

     the symmetry operations in each class and the name of the first element:

     E        1
                                                                 
     s        2
                                                                 

     Band symmetry, C_s (m)     point group:

     e(  1 -  1) =    -16.76115  eV     1   --> A'             
     e(  2 -  2) =    -14.96869  eV     1   --> A'             
     e(  3 -  3) =    -13.85950  eV     1   --> A'             
     e(  4 -  4) =    -11.13539  eV     1   --> A'             
     e(  5 -  5) =     -7.14016  eV     1   --> A''            
     e(  6 -  6) =     -6.34192  eV     1   --> A''            
     e(  7 -  7) =     -3.23104  eV     1   --> A'             
     e(  8 -  8) =     -3.06866  eV     1   --> A'             
     e(  9 -  9) =      0.85543  eV     1   --> A'             
     e( 10 - 10) =      2.63260  eV     1   --> A'             
     e( 11 - 11) =      6.36241  eV     1   --> A'             
     e( 12 - 12) =      7.80759  eV     1   --> A'             
     e( 13 - 13) =      9.97376  eV     1   --> A'             
     e( 14 - 14) =     10.27930  eV     1   --> A'             
     e( 15 - 15) =     10.54237  eV     1   --> A'             
     e( 16 - 16) =     10.75642  eV     1   --> A'             
     e( 17 - 17) =     11.81193  eV     1   --> A'             
     e( 18 - 18) =     11.92787  eV     1   --> A'             
     e( 19 - 19) =     12.19829  eV     1   --> A'             
     e( 20 - 20) =     12.79874  eV     1   --> A'             

 **************************************************************************

 **************************************************************************

                    xk=(   0.00000,   0.54528,   0.00000  )

     Band symmetry, C_s (m)     point group:

     e(  1 -  1) =    -16.80795  eV     1   --> A'             
     e(  2 -  2) =    -15.21958  eV     1   --> A'             
     e(  3 -  3) =    -13.58173  eV     1   --> A'             
     e(  4 -  4) =    -11.06355  eV     1   --> A'             
     e(  5 -  5) =     -7.12251  eV     1   --> A''            
     e(  6 -  6) =     -6.32572  eV     1   --> A''            
     e(  7 -  7) =     -3.39910  eV     1   --> A'             
     e(  8 -  8) =     -3.08042  eV     1   --> A'             
     e(  9 -  9) =      0.98660  eV     1   --> A'             
     e( 10 - 10) =      2.73001  eV     1   --> A'             
     e( 11 - 11) =      6.37199  eV     1   --> A'             
     e( 12 - 12) =      7.76649  eV     1   --> A'             
     e( 13 - 13) =      9.40352  eV     1   --> A'             
     e( 14 - 14) =      9.84755  eV     1   --> A'             
     e( 15 - 15) =     10.89440  eV     1   --> A'             
     e( 16 - 16) =     11.12799  eV     1   --> A'             
     e( 17 - 17) =     11.39729  eV     1   --> A'             
     e( 18 - 18) =     11.86169  eV     1   --> A'             
     e( 19 - 19) =     12.10392  eV     1   --> A'             
     e( 20 - 20) =     12.70202  eV     1   --> A'             

 **************************************************************************

 **************************************************************************

                    xk=(   0.00000,   0.51320,   0.00000  )

     Band symmetry, C_s (m)     point group:

     e(  1 -  1) =    -16.94087  eV     1   --> A'             
     e(  2 -  2) =    -15.68544  eV     1   --> A'             
     e(  3 -  3) =    -13.03512  eV     1   --> A'             
     e(  4 -  4) =    -10.85555  eV     1   --> A'             
     e(  5 -  5) =     -7.06929  eV     1   --> A''            
     e(  6 -  6) =     -6.27712  eV     1   --> A''            
     e(  7 -  7) =     -3.75182  eV     1   --> A'             
     e(  8 -  8) =     -3.21825  eV     1   --> A'             
     e(  9 -  9) =      1.34873  eV     1   --> A'             
     e( 10 - 10) =      3.00430  eV     1   --> A'             
     e( 11 - 11) =      6.40043  eV     1   --> A'             
     e( 12 - 12) =      7.61526  eV     1   --> A'             
     e( 13 - 13) =      8.73982  eV     1   --> A'             
     e( 14 - 14) =      9.20073  eV     1   --> A'             
     e( 15 - 15) =     10.28427  eV     1   --> A'             
     e( 16 - 16) =     11.15967  eV     1   --> A'             
     e( 17 - 17) =     11.30614  eV     1   --> A'             
     e( 18 - 18) =     11.85616  eV     1   --> A'             
     e( 19 - 19) =     12.28878  eV     1   --> A'             
     e( 20 - 20) =     12.70615  eV     1   --> A'             

 **************************************************************************

 **************************************************************************

                    xk=(   0.00000,   0.48113,   0.00000  )

     Band symmetry, C_s (m)     point group:

     e(  1 -  1) =    -17.14159  eV     1   --> A'             
     e(  2 -  2) =    -16.17794  eV     1   --> A'             
     e(  3 -  3) =    -12.40893  eV     1   --> A'             
     e(  4 -  4) =    -10.53078  eV     1   --> A'             
     e(  5 -  5) =     -6.98110  eV     1   --> A''            
     e(  6 -  6) =     -6.19672  eV     1   --> A''            
     e(  7 -  7) =     -4.18890  eV     1   --> A'             
     e(  8 -  8) =     -3.48016  eV     1   --> A'             
     e(  9 -  9) =      1.87562  eV     1   --> A'             
     e( 10 - 10) =      3.41286  eV     1   --> A'             
     e( 11 - 11) =      6.44536  eV     1   --> A'             
     e( 12 - 12) =      7.29316  eV     1   --> A'             
     e( 13 - 13) =      8.11838  eV     1   --> A'             
     e( 14 - 14) =      8.71739  eV     1   --> A'             
     e( 15 - 15) =      9.55874  eV     1   --> A'             
     e( 16 - 16) =     10.58117  eV     1   --> A'             
     e( 17 - 17) =     10.64668  eV     1   --> A'             
     e( 18 - 18) =     12.17038  eV     1   --> A'             
     e( 19 - 19) =     12.59355  eV     1   --> A'             
     e( 20 - 20) =     13.12613  eV     1   --> A'             

 **************************************************************************

 **************************************************************************

                    xk=(   0.00000,   0.44905,   0.00000  )

     Band symmetry, C_s (m)     point group:

     e(  1 -  1) =    -17.38836  eV     1   --> A'             
     e(  2 -  2) =    -16.65750  eV     1   --> A'             
     e(  3 -  3) =    -11.74403  eV     1   --> A'             
     e(  4 -  4) =    -10.11264  eV     1   --> A'             
     e(  5 -  5) =     -6.85888  eV     1   --> A''            
     e(  6 -  6) =     -6.08553  eV     1   --> A''            
     e(  7 -  7) =     -4.66139  eV     1   --> A'             
     e(  8 -  8) =     -3.81925  eV     1   --> A'             
     e(  9 -  9) =      2.50781  eV     1   --> A'             
     e( 10 - 10) =      3.90749  eV     1   --> A'             
     e( 11 - 11) =      6.49048  eV     1   --> A'             
     e( 12 - 12) =      6.83148  eV     1   --> A'             
     e( 13 - 13) =      7.51044  eV     1   --> A'             
     e( 14 - 14) =      8.39359  eV     1   --> A'             
     e( 15 - 15) =      8.91825  eV     1   --> A'             
     e( 16 - 16) =      9.89646  eV     1   --> A'             
     e( 17 - 17) =     10.12394  eV     1   --> A'             
     e( 18 - 18) =     11.65379  eV     1   --> A'             
     e( 19 - 19) =     12.59857  eV     1   --> A'             
     e( 20 - 20) =     13.34990  eV     1   --> A'             

 **************************************************************************

 **************************************************************************

                    xk=(   0.00000,   0.41698,   0.00000  )

     Band symmetry, C_s (m)     point group:

     e(  1 -  1) =    -17.66172  eV     1   --> A'             
     e(  2 -  2) =    -17.11263  eV     1   --> A'             
     e(  3 -  3) =    -11.05360  eV     1   --> A'             
     e(  4 -  4) =     -9.62297  eV     1   --> A'             
     e(  5 -  5) =     -6.70384  eV     1   --> A''            
     e(  6 -  6) =     -5.94491  eV     1   --> A''            
     e(  7 -  7) =     -5.14029  eV     1   --> A'             
     e(  8 -  8) =     -4.19708  eV     1   --> A'             
     e(  9 -  9) =      3.20392  eV     1   --> A'             
     e( 10 - 10) =      4.44037  eV     1   --> A'             
     e( 11 - 11) =      6.22371  eV     1   --> A'             
     e( 12 - 12) =      6.63671  eV     1   --> A'             
     e( 13 - 13) =      6.93185  eV     1   --> A'             
     e( 14 - 14) =      7.99125  eV     1   --> A'             
     e( 15 - 15) =      8.48549  eV     1   --> A'             
     e( 16 - 16) =      9.26763  eV     1   --> A'             
     e( 17 - 17) =      9.65935  eV     1   --> A'             
     e( 18 - 18) =     11.14276  eV     1   --> A'             
     e( 19 - 19) =     12.01081  eV     1   --> A'             
     e( 20 - 20) =     13.72024  eV     1   --> A'             

 **************************************************************************

 **************************************************************************

                    xk=(   0.00000,   0.38490,   0.00000  )

     Band symmetry, C_s (m)     point group:

     e(  1 -  1) =    -17.94657  eV     1   --> A'             
     e(  2 -  2) =    -17.53838  eV     1   --> A'             
     e(  3 -  3) =    -10.34520  eV     1   --> A'             
     e(  4 -  4) =     -9.08045  eV     1   --> A'             
     e(  5 -  5) =     -6.51767  eV     1   --> A''            
     e(  6 -  6) =     -5.77680  eV     1   --> A''            
     e(  7 -  7) =     -5.60823  eV     1   --> A'             
     e(  8 -  8) =     -4.58760  eV     1   --> A'             
     e(  9 -  9) =      3.93391  eV     1   --> A'             
     e( 10 - 10) =      4.94560  eV     1   --> A'             
     e( 11 - 11) =      5.69943  eV     1   --> A'             
     e( 12 - 12) =      6.41975  eV     1   --> A'             
     e( 13 - 13) =      6.72434  eV     1   --> A'             
     e( 14 - 14) =      7.45330  eV     1   --> A'             
     e( 15 - 15) =      8.19406  eV     1   --> A'             
     e( 16 - 16) =      8.71231  eV     1   --> A'             
     e( 17 - 17) =      9.30619  eV     1   --> A'             
     e( 18 - 18) =     10.66601  eV     1   --> A'             
     e( 19 - 19) =     11.44671  eV     1   --> A'             
     e( 20 - 20) =     13.51005  eV     1   --> A'             

 **************************************************************************

 **************************************************************************

                    xk=(   0.00000,   0.35283,   0.00000  )

     Band symmetry, C_s (m)     point group:

     e(  1 -  1) =    -18.23222  eV     1   --> A'             
     e(  2 -  2) =    -17.93155  eV     1   --> A'             
     e(  3 -  3) =     -9.62470  eV     1   --> A'             
     e(  4 -  4) =     -8.50047  eV     1   --> A'             
     e(  5 -  5) =     -6.30262  eV     1   --> A''            
     e(  6 -  6) =     -6.05438  eV     1   --> A'             
     e(  7 -  7) =     -5.58365  eV     1   --> A''            
     e(  8 -  8) =     -4.97367  eV     1   --> A'             
     e(  9 -  9) =      4.65890  eV     1   --> A'             
     e( 10 - 10) =      5.14008  eV     1   --> A'             
     e( 11 - 11) =      5.30738  eV     1   --> A'             
     e( 12 - 12) =      6.13277  eV     1   --> A'             
     e( 13 - 13) =      6.82127  eV     1   --> A'             
     e( 14 - 14) =      6.93175  eV     1   --> A'             
     e( 15 - 15) =      7.83445  eV     1   --> A'             
     e( 16 - 16) =      8.25795  eV     1   --> A'             
     e( 17 - 17) =      9.09556  eV     1   --> A'             
     e( 18 - 18) =     10.24066  eV     1   --> A'             
     e( 19 - 19) =     10.92698  eV     1   --> A'             
     e( 20 - 20) =     14.19528  eV     1   --> A''            

 **************************************************************************

 **************************************************************************

                    xk=(   0.00000,   0.32075,   0.00000  )

     Band symmetry, C_s (m)     point group:

     e(  1 -  1) =    -18.51183  eV     1   --> A'             
     e(  2 -  2) =    -18.28937  eV     1   --> A'             
     e(  3 -  3) =     -8.89846  eV     1   --> A'             
     e(  4 -  4) =     -7.89714  eV     1   --> A'             
     e(  5 -  5) =     -6.47130  eV     1   --> A'             
     e(  6 -  6) =     -6.06195  eV     1   --> A''            
     e(  7 -  7) =     -5.36883  eV     1   --> A''            
     e(  8 -  8) =     -5.34418  eV     1   --> A'             
     e(  9 -  9) =      4.68360  eV     1   --> A'             
     e( 10 - 10) =      4.97413  eV     1   --> A'             
     e( 11 - 11) =      5.53274  eV     1   --> A'             
     e( 12 - 12) =      6.21421  eV     1   --> A'             
     e( 13 - 13) =      6.46897  eV     1   --> A'             
     e( 14 - 14) =      6.96994  eV     1   --> A'             
     e( 15 - 15) =      7.40875  eV     1   --> A'             
     e( 16 - 16) =      7.91808  eV     1   --> A'             
     e( 17 - 17) =      8.98707  eV     1   --> A'             
     e( 18 - 18) =      9.88817  eV     1   --> A'             
     e( 19 - 19) =     10.46174  eV     1   --> A'             
     e( 20 - 20) =     13.27743  eV     1   --> A''            

 **************************************************************************

 **************************************************************************

                    xk=(   0.00000,   0.28868,   0.00000  )

     Band symmetry, C_s (m)     point group:

     e(  1 -  1) =    -18.78160  eV     1   --> A'             
     e(  2 -  2) =    -18.60869  eV     1   --> A'             
     e(  3 -  3) =     -8.17365  eV     1   --> A'             
     e(  4 -  4) =     -7.29103  eV     1   --> A'             
     e(  5 -  5) =     -6.84620  eV     1   --> A'             
     e(  6 -  6) =     -5.79936  eV     1   --> A''            
     e(  7 -  7) =     -5.69149  eV     1   --> A'             
     e(  8 -  8) =     -5.13631  eV     1   --> A''            
     e(  9 -  9) =      4.24363  eV     1   --> A'             
     e( 10 - 10) =      4.64336  eV     1   --> A'             
     e( 11 - 11) =      5.89781  eV     1   --> A'             
     e( 12 - 12) =      6.22190  eV     1   --> A'             
     e( 13 - 13) =      6.49476  eV     1   --> A'             
     e( 14 - 14) =      6.98919  eV     1   --> A'             
     e( 15 - 15) =      7.10928  eV     1   --> A'             
     e( 16 - 16) =      7.73130  eV     1   --> A'             
     e( 17 - 17) =      8.91140  eV     1   --> A'             
     e( 18 - 18) =      9.63892  eV     1   --> A'             
     e( 19 - 19) =     10.06777  eV     1   --> A'             
     e( 20 - 20) =     12.37297  eV     1   --> A''            

 **************************************************************************

 **************************************************************************

                    xk=(   0.00000,   0.25660,   0.00000  )

     Band symmetry, C_s (m)     point group:

     e(  1 -  1) =    -19.03900  eV     1   --> A'             
     e(  2 -  2) =    -18.88706  eV     1   --> A'             
     e(  3 -  3) =     -7.45873  eV     1   --> A'             
     e(  4 -  4) =     -7.22602  eV     1   --> A'             
     e(  5 -  5) =     -6.64495  eV     1   --> A'             
     e(  6 -  6) =     -6.00953  eV     1   --> A'             
     e(  7 -  7) =     -5.51989  eV     1   --> A''            
     e(  8 -  8) =     -4.89119  eV     1   --> A''            
     e(  9 -  9) =      3.84385  eV     1   --> A'             
     e( 10 - 10) =      4.27435  eV     1   --> A'             
     e( 11 - 11) =      5.49642  eV     1   --> A'             
     e( 12 - 12) =      6.41123  eV     1   --> A'             
     e( 13 - 13) =      6.55457  eV     1   --> A'             
     e( 14 - 14) =      6.99731  eV     1   --> A'             
     e( 15 - 15) =      7.22260  eV     1   --> A'             
     e( 16 - 16) =      7.71631  eV     1   --> A'             
     e( 17 - 17) =      8.82525  eV     1   --> A'             
     e( 18 - 18) =      9.50440  eV     1   --> A'             
     e( 19 - 19) =      9.78963  eV     1   --> A'             
     e( 20 - 20) =     11.49849  eV     1   --> A''            

 **************************************************************************

 **************************************************************************

                    xk=(   0.00000,   0.22453,   0.00000  )

     Band symmetry, C_s (m)     point group:

     e(  1 -  1) =    -19.27945  eV     1   --> A'             
     e(  2 -  2) =    -19.12544  eV     1   --> A'             
     e(  3 -  3) =     -7.53165  eV     1   --> A'             
     e(  4 -  4) =     -6.76364  eV     1   --> A'             
     e(  5 -  5) =     -6.30630  eV     1   --> A'             
     e(  6 -  6) =     -6.03679  eV     1   --> A'             
     e(  7 -  7) =     -5.23063  eV     1   --> A''            
     e(  8 -  8) =     -4.64007  eV     1   --> A''            
     e(  9 -  9) =      3.48761  eV     1   --> A'             
     e( 10 - 10) =      3.93198  eV     1   --> A'             
     e( 11 - 11) =      5.13128  eV     1   --> A'             
     e( 12 - 12) =      6.17484  eV     1   --> A'             
     e( 13 - 13) =      6.26629  eV     1   --> A'             
     e( 14 - 14) =      7.31609  eV     1   --> A'             
     e( 15 - 15) =      7.62526  eV     1   --> A'             
     e( 16 - 16) =      7.73936  eV     1   --> A'             
     e( 17 - 17) =      8.71034  eV     1   --> A'             
     e( 18 - 18) =      9.42953  eV     1   --> A'             
     e( 19 - 19) =      9.71068  eV     1   --> A'             
     e( 20 - 20) =     10.66942  eV     1   --> A''            

 **************************************************************************

 **************************************************************************

                    xk=(   0.00000,   0.19245,   0.00000  )

     Band symmetry, C_s (m)     point group:

     e(  1 -  1) =    -19.49632  eV     1   --> A'             
     e(  2 -  2) =    -19.32779  eV     1   --> A'             
     e(  3 -  3) =     -7.80379  eV     1   --> A'             
     e(  4 -  4) =     -6.55495  eV     1   --> A'             
     e(  5 -  5) =     -6.10173  eV     1   --> A'             
     e(  6 -  6) =     -5.46288  eV     1   --> A'             
     e(  7 -  7) =     -4.93946  eV     1   --> A''            
     e(  8 -  8) =     -4.39042  eV     1   --> A''            
     e(  9 -  9) =      3.17618  eV     1   --> A'             
     e( 10 - 10) =      3.62867  eV     1   --> A'             
     e( 11 - 11) =      4.81223  eV     1   --> A'             
     e( 12 - 12) =      5.87851  eV     1   --> A'             
     e( 13 - 13) =      6.02413  eV     1   --> A'             
     e( 14 - 14) =      7.39069  eV     1   --> A'             
     e( 15 - 15) =      7.62279  eV     1   --> A'             
     e( 16 - 16) =      8.27715  eV     1   --> A'             
     e( 17 - 17) =      8.55229  eV     1   --> A'             
     e( 18 - 18) =      9.41440  eV     1   --> A'             
     e( 19 - 19) =      9.78279  eV     1   --> A'             
     e( 20 - 20) =      9.90019  eV     1   --> A''            

 **************************************************************************

 **************************************************************************

                    xk=(   0.00000,   0.16038,   0.00000  )

     Band symmetry, C_s (m)     point group:

     e(  1 -  1) =    -19.68417  eV     1   --> A'             
     e(  2 -  2) =    -19.49742  eV     1   --> A'             
     e(  3 -  3) =     -8.03636  eV     1   --> A'             
     e(  4 -  4) =     -6.77127  eV     1   --> A'             
     e(  5 -  5) =     -5.48809  eV     1   --> A'             
     e(  6 -  6) =     -4.92513  eV     1   --> A'             
     e(  7 -  7) =     -4.65653  eV     1   --> A''            
     e(  8 -  8) =     -4.15126  eV     1   --> A''            
     e(  9 -  9) =      2.91039  eV     1   --> A'             
     e( 10 - 10) =      3.36881  eV     1   --> A'             
     e( 11 - 11) =      4.54101  eV     1   --> A'             
     e( 12 - 12) =      5.61548  eV     1   --> A'             
     e( 13 - 13) =      5.80193  eV     1   --> A'             
     e( 14 - 14) =      7.41369  eV     1   --> A'             
     e( 15 - 15) =      7.52315  eV     1   --> A'             
     e( 16 - 16) =      8.33982  eV     1   --> A'             
     e( 17 - 17) =      8.85712  eV     1   --> A'             
     e( 18 - 18) =      9.20626  eV     1   --> A''            
     e( 19 - 19) =      9.45537  eV     1   --> A'             
     e( 20 - 20) =      9.87561  eV     1   --> A'             

 **************************************************************************

 **************************************************************************

                    xk=(   0.00000,   0.12830,   0.00000  )

     Band symmetry, C_s (m)     point group:

     e(  1 -  1) =    -19.84001  eV     1   --> A'             
     e(  2 -  2) =    -19.63586  eV     1   --> A'             
     e(  3 -  3) =     -8.22784  eV     1   --> A'             
     e(  4 -  4) =     -6.95021  eV     1   --> A'             
     e(  5 -  5) =     -4.94152  eV     1   --> A'             
     e(  6 -  6) =     -4.44584  eV     1   --> A'             
     e(  7 -  7) =     -4.39433  eV     1   --> A''            
     e(  8 -  8) =     -3.93293  eV     1   --> A''            
     e(  9 -  9) =      2.69086  eV     1   --> A'             
     e( 10 - 10) =      3.15437  eV     1   --> A'             
     e( 11 - 11) =      4.31831  eV     1   --> A'             
     e( 12 - 12) =      5.39721  eV     1   --> A'             
     e( 13 - 13) =      5.60958  eV     1   --> A'             
     e( 14 - 14) =      7.31922  eV     1   --> A'             
     e( 15 - 15) =      7.50347  eV     1   --> A'             
     e( 16 - 16) =      8.16047  eV     1   --> A'             
     e( 17 - 17) =      8.60360  eV     1   --> A''            
     e( 18 - 18) =      9.32715  eV     1   --> A'             
     e( 19 - 19) =      9.52783  eV     1   --> A'             
     e( 20 - 20) =      9.92672  eV     1   --> A'             

 **************************************************************************

 **************************************************************************

                    xk=(   0.00000,   0.09623,   0.00000  )

     Band symmetry, C_s (m)     point group:

     e(  1 -  1) =    -19.96221  eV     1   --> A'             
     e(  2 -  2) =    -19.74358  eV     1   --> A'             
     e(  3 -  3) =     -8.37747  eV     1   --> A'             
     e(  4 -  4) =     -7.09040  eV     1   --> A'             
     e(  5 -  5) =     -4.48237  eV     1   --> A'             
     e(  6 -  6) =     -4.16710  eV     1   --> A''            
     e(  7 -  7) =     -4.04390  eV     1   --> A'             
     e(  8 -  8) =     -3.74661  eV     1   --> A''            
     e(  9 -  9) =      2.51839  eV     1   --> A'             
     e( 10 - 10) =      2.98651  eV     1   --> A'             
     e( 11 - 11) =      4.14456  eV     1   --> A'             
     e( 12 - 12) =      5.22605  eV     1   --> A'             
     e( 13 - 13) =      5.45440  eV     1   --> A'             
     e( 14 - 14) =      7.20403  eV     1   --> A'             
     e( 15 - 15) =      7.49279  eV     1   --> A'             
     e( 16 - 16) =      8.00828  eV     1   --> A'             
     e( 17 - 17) =      8.10910  eV     1   --> A''            
     e( 18 - 18) =      9.54323  eV     1   --> A'             
     e( 19 - 19) =      9.76516  eV     1   --> A'             
     e( 20 - 20) =      9.93442  eV     1   --> A'             

 **************************************************************************

 **************************************************************************

                    xk=(   0.00000,   0.06415,   0.00000  )

     Band symmetry, C_s (m)     point group:

     e(  1 -  1) =    -20.04993  eV     1   --> A'             
     e(  2 -  2) =    -19.82063  eV     1   --> A'             
     e(  3 -  3) =     -8.48465  eV     1   --> A'             
     e(  4 -  4) =     -7.19100  eV     1   --> A'             
     e(  5 -  5) =     -4.13286  eV     1   --> A'             
     e(  6 -  6) =     -3.99000  eV     1   --> A''            
     e(  7 -  7) =     -3.73873  eV     1   --> A'             
     e(  8 -  8) =     -3.60341  eV     1   --> A''            
     e(  9 -  9) =      2.39393  eV     1   --> A'             
     e( 10 - 10) =      2.86602  eV     1   --> A'             
     e( 11 - 11) =      4.02011  eV     1   --> A'             
     e( 12 - 12) =      5.10305  eV     1   --> A'             
     e( 13 - 13) =      5.34075  eV     1   --> A'             
     e( 14 - 14) =      7.11309  eV     1   --> A'             
     e( 15 - 15) =      7.46833  eV     1   --> A'             
     e( 16 - 16) =      7.73983  eV     1   --> A''            
     e( 17 - 17) =      7.89424  eV     1   --> A'             
     e( 18 - 18) =      9.60313  eV     1   --> A'             
     e( 19 - 19) =      9.91116  eV     1   --> A'             
     e( 20 - 20) =      9.91976  eV     1   --> A''            

 **************************************************************************

 **************************************************************************

                    xk=(   0.00000,   0.03208,   0.00000  )

     Band symmetry, C_s (m)     point group:

     e(  1 -  1) =    -20.10271  eV     1   --> A'             
     e(  2 -  2) =    -19.86691  eV     1   --> A'             
     e(  3 -  3) =     -8.54907  eV     1   --> A'             
     e(  4 -  4) =     -7.25155  eV     1   --> A'             
     e(  5 -  5) =     -3.91308  eV     1   --> A'             
     e(  6 -  6) =     -3.87693  eV     1   --> A''            
     e(  7 -  7) =     -3.54733  eV     1   --> A'             
     e(  8 -  8) =     -3.51298  eV     1   --> A''            
     e(  9 -  9) =      2.31860  eV     1   --> A'             
     e( 10 - 10) =      2.79347  eV     1   --> A'             
     e( 11 - 11) =      3.94528  eV     1   --> A'             
     e( 12 - 12) =      5.02892  eV     1   --> A'             
     e( 13 - 13) =      5.27145  eV     1   --> A'             
     e( 14 - 14) =      7.05610  eV     1   --> A'             
     e( 15 - 15) =      7.44357  eV     1   --> A'             
     e( 16 - 16) =      7.51106  eV     1   --> A''            
     e( 17 - 17) =      7.82374  eV     1   --> A'             
     e( 18 - 18) =      9.63595  eV     1   --> A'             
     e( 19 - 19) =      9.71632  eV     1   --> A''            
     e( 20 - 20) =      9.89420  eV     1   --> A'             

 **************************************************************************

 **************************************************************************

                    xk=(   0.00000,   0.00000,   0.00000  )

     point group C_3v (3m)  
     there are  3 classes
     the character table:

       E     2C3   3s_v 
A_1    1.00  1.00  1.00
A_2    1.00  1.00 -1.00
E      2.00 -1.00  0.00

     the symmetry operations in each class and the name of the first element:

     E        1
                                                                 
     2C3      2    3
                                                                 
     3s_v     4    5    6
                                                                 

     Band symmetry, C_3v (3m)   point group:

     e(  1 -  1) =    -20.12033  eV     1   --> A_1  L_1       
     e(  2 -  2) =    -19.88234  eV     1   --> A_1  L_1       
     e(  3 -  3) =     -8.57051  eV     1   --> A_1  L_1       
     e(  4 -  4) =     -7.27177  eV     1   --> A_1  L_1       
     e(  5 -  6) =     -3.83808  eV     2   --> E    L_3       
     e(  7 -  8) =     -3.48208  eV     2   --> E    L_3       
     e(  9 -  9) =      2.29336  eV     1   --> A_1  L_1       
     e( 10 - 10) =      2.76925  eV     1   --> A_1  L_1       
     e( 11 - 11) =      3.92030  eV     1   --> A_1  L_1       
     e( 12 - 12) =      5.00415  eV     1   --> A_1  L_1       
     e( 13 - 13) =      5.24817  eV     1   --> A_1  L_1       
     e( 14 - 14) =      7.03674  eV     1   --> A_1  L_1       
     e( 15 - 16) =      7.43345  eV     2   --> E    L_3       
     e( 17 - 17) =      7.79968  eV     1   --> A_1  L_1       
     e( 18 - 19) =      9.64758  eV     2   --> E    L_3       
     e( 20 - 20) =      9.88695  eV     1   --> A_1  L_1       

 **************************************************************************

     BANDS        :     10.87s CPU     11.06s WALL


   This run was terminated on:  15:38:15  18Apr2024            

=------------------------------------------------------------------------------=
   JOB DONE.
=------------------------------------------------------------------------------=
