
     Program BANDS v.7.2 starts on 18Apr2024 at 20:19:41 

     This program is part of the open-source Quantum ESPRESSO suite
     for quantum simulation of materials; please cite
         "P. Giannozzi et al., J. Phys.:Condens. Matter 21 395502 (2009);
         "P. Giannozzi et al., J. Phys.:Condens. Matter 29 465901 (2017);
         "P. Giannozzi et al., J. Chem. Phys. 152 154105 (2020);
          URL http://www.quantum-espresso.org", 
     in publications or presentations arising from this work. More details at
     http://www.quantum-espresso.org/quote

     Parallel version (MPI & OpenMP), running on       8 processor cores
     Number of MPI processes:                 8
     Threads/MPI process:                     1

     MPI processes distributed on     1 nodes
     R & G space division:  proc/nbgrp/npool/nimage =       8
     0 MiB available memory on the printing compute node when the environment starts


     Reading xml data from directory:

     ./tmp/CBN2L_AB_PBE_vdW.save/

     IMPORTANT: XC functional enforced from input :
     Exchange-correlation= VDW-DF2-B86R
                           (   1   4  26   0   2   0   0)
     Any further DFT definition will be discarded
     Please, verify this is what you really want


     Parallelization info
     --------------------
     sticks:   dense  smooth     PW     G-vecs:    dense   smooth      PW
     Min          53      53     15                 7137     7137    1187
     Max          55      55     18                 7150     7150    1218
     Sum         433     433    127                57141    57141    9537

     Using Slab Decomposition



     %%%%%%%%%%%%%%%%%%%%%%%%%%%%%%%%%%%%%%%%%%%%%%%%%%%%%%%%%%%%%%%%%%%%%%%%
     %                                                                      %
     % You are using vdW-DF, which was implemented by the Thonhauser group. %
     % Please cite the following two papers that made this development      %
     % possible and the two reviews that describe the various versions:     %
     %                                                                      %
     %   T. Thonhauser et al., PRL 115, 136402 (2015).                      %
     %   T. Thonhauser et al., PRB 76, 125112 (2007).                       %
     %   K. Berland et al., Rep. Prog. Phys. 78, 066501 (2015).             %
     %   D.C. Langreth et al., J. Phys.: Condens. Matter 21, 084203 (2009). %
     %                                                                      %
     % If you are calculating stress with vdW-DF, please also cite:         %
     %                                                                      %
     %   R. Sabatini et al., J. Phys.: Condens. Matter 24, 424209 (2012).   %
     %                                                                      %
     %%%%%%%%%%%%%%%%%%%%%%%%%%%%%%%%%%%%%%%%%%%%%%%%%%%%%%%%%%%%%%%%%%%%%%%%

     %%%%%%%%%%%%%%%%%%%%%%%%%%%%%%%%%%%%%%%%%%%%%%%%%%%%%%%%%%%%%%%%%%%%%%%%
     %                                                                      %
     %  vdW-DF NEWS:                                                        %
     %                                                                      %
     %  * vdW-DF3 is now available. DOI: 10.1021/acs.jctc.0c00471           %
     %    use with input_dft = 'vdW-DF3-opt1' or 'vdW-DF3-opt2'             %
     %                                                                      %
     %  * Unscreened and range-separated hybrid vdW-DF-cx functionals       %
     %    DOI: 10.1063/1.4986522 and 10.1088/1361-648X/ac2ad2               %
     %    use with input_dft = 'vdW-DF-cx0'    and 'vdW-DF-ahcx'            %
     %  * Unscreened and range-separated hybrid vdW-DF2-b86r functionals    %
     %    DOI: 10.1063/1.4986522 and DOI: 10.1103/PhysRevX.12.041003        %
     %    use with input_dft = 'vdW-DF2-br0' and 'vdW-DF2-ahbr'             %
     %                                                                      %
     %%%%%%%%%%%%%%%%%%%%%%%%%%%%%%%%%%%%%%%%%%%%%%%%%%%%%%%%%%%%%%%%%%%%%%%%


     Reading collected, re-writing distributed wavefunctions
     high-symmetry point:  0.0000 0.0000 0.0000   x coordinate   0.0000
     high-symmetry point: -0.3333 0.5774 0.0000   x coordinate   0.6667
     high-symmetry point:  0.0000 0.5774 0.0000   x coordinate   1.0000
     high-symmetry point:  0.0000 0.0000 0.0000   x coordinate   1.5773

     Plottable bands (eV) written to file Bande_CBN2L_AB_PBE_vdW.dat.gnu
     Bands written to file Bande_CBN2L_AB_PBE_vdW.dat

 **************************************************************************

                    xk=(   0.00000,   0.00000,   0.00000  )

     point group C_3v (3m)  
     there are  3 classes
     the character table:

       E     2C3   3s_v 
A_1    1.00  1.00  1.00
A_2    1.00  1.00 -1.00
E      2.00 -1.00  0.00

     the symmetry operations in each class and the name of the first element:

     E        1
                                                                 
     2C3      2    3
                                                                 
     3s_v     4    5    6
                                                                 

     Band symmetry, C_3v (3m)   point group:

     e(  1 -  1) =    -20.07126  eV     1   --> A_1  L_1       
     e(  2 -  2) =    -19.77491  eV     1   --> A_1  L_1       
     e(  3 -  3) =     -8.49655  eV     1   --> A_1  L_1       
     e(  4 -  4) =     -7.15807  eV     1   --> A_1  L_1       
     e(  5 -  6) =     -3.81650  eV     2   --> E    L_3       
     e(  7 -  8) =     -3.38234  eV     2   --> E    L_3       
     e(  9 -  9) =      2.31520  eV     1   --> A_1  L_1       
     e( 10 - 10) =      2.77531  eV     1   --> A_1  L_1       
     e( 11 - 11) =      3.89374  eV     1   --> A_1  L_1       
     e( 12 - 12) =      4.98142  eV     1   --> A_1  L_1       
     e( 13 - 13) =      5.28038  eV     1   --> A_1  L_1       
     e( 14 - 14) =      7.05446  eV     1   --> A_1  L_1       
     e( 15 - 16) =      7.47239  eV     2   --> E    L_3       
     e( 17 - 17) =      7.79767  eV     1   --> A_1  L_1       
     e( 18 - 19) =      9.72306  eV     2   --> E    L_3       
     e( 20 - 20) =      9.91896  eV     1   --> A_1  L_1       

 **************************************************************************

 **************************************************************************

                    xk=(  -0.00654,   0.01132,   0.00000  )

     point group C_1 (1)    
     there are  1 classes
     the character table:

       E    
A      1.00

     the symmetry operations in each class and the name of the first element:

     E        1
                                                                 

     Band symmetry, C_1 (1)     point group:

     e(  1 -  1) =    -20.06831  eV     1   --> A              
     e(  2 -  2) =    -19.77235  eV     1   --> A              
     e(  3 -  3) =     -8.49298  eV     1   --> A              
     e(  4 -  4) =     -7.15470  eV     1   --> A              
     e(  5 -  5) =     -3.82885  eV     1   --> A              
     e(  6 -  6) =     -3.82282  eV     1   --> A              
     e(  7 -  7) =     -3.39315  eV     1   --> A              
     e(  8 -  8) =     -3.38741  eV     1   --> A              
     e(  9 -  9) =      2.31939  eV     1   --> A              
     e( 10 - 10) =      2.77934  eV     1   --> A              
     e( 11 - 11) =      3.89789  eV     1   --> A              
     e( 12 - 12) =      4.98553  eV     1   --> A              
     e( 13 - 13) =      5.28429  eV     1   --> A              
     e( 14 - 14) =      7.05773  eV     1   --> A              
     e( 15 - 15) =      7.47431  eV     1   --> A              
     e( 16 - 16) =      7.48536  eV     1   --> A              
     e( 17 - 17) =      7.80170  eV     1   --> A              
     e( 18 - 18) =      9.72128  eV     1   --> A              
     e( 19 - 19) =      9.73454  eV     1   --> A              
     e( 20 - 20) =      9.92035  eV     1   --> A              

 **************************************************************************

 **************************************************************************

                    xk=(  -0.01307,   0.02264,   0.00000  )

     Band symmetry, C_1 (1)     point group:

     e(  1 -  1) =    -20.05948  eV     1   --> A              
     e(  2 -  2) =    -19.76474  eV     1   --> A              
     e(  3 -  3) =     -8.48232  eV     1   --> A              
     e(  4 -  4) =     -7.14462  eV     1   --> A              
     e(  5 -  5) =     -3.86625  eV     1   --> A              
     e(  6 -  6) =     -3.84234  eV     1   --> A              
     e(  7 -  7) =     -3.42574  eV     1   --> A              
     e(  8 -  8) =     -3.40298  eV     1   --> A              
     e(  9 -  9) =      2.33195  eV     1   --> A              
     e( 10 - 10) =      2.79142  eV     1   --> A              
     e( 11 - 11) =      3.91033  eV     1   --> A              
     e( 12 - 12) =      4.99785  eV     1   --> A              
     e( 13 - 13) =      5.29599  eV     1   --> A              
     e( 14 - 14) =      7.06745  eV     1   --> A              
     e( 15 - 15) =      7.47958  eV     1   --> A              
     e( 16 - 16) =      7.52363  eV     1   --> A              
     e( 17 - 17) =      7.81372  eV     1   --> A              
     e( 18 - 18) =      9.71587  eV     1   --> A              
     e( 19 - 19) =      9.76856  eV     1   --> A              
     e( 20 - 20) =      9.92436  eV     1   --> A              

 **************************************************************************

 **************************************************************************

                    xk=(  -0.01961,   0.03396,   0.00000  )

     Band symmetry, C_1 (1)     point group:

     e(  1 -  1) =    -20.04474  eV     1   --> A              
     e(  2 -  2) =    -19.75204  eV     1   --> A              
     e(  3 -  3) =     -8.46448  eV     1   --> A              
     e(  4 -  4) =     -7.12781  eV     1   --> A              
     e(  5 -  5) =     -3.92763  eV     1   --> A              
     e(  6 -  6) =     -3.87471  eV     1   --> A              
     e(  7 -  7) =     -3.47935  eV     1   --> A              
     e(  8 -  8) =     -3.42879  eV     1   --> A              
     e(  9 -  9) =      2.35285  eV     1   --> A              
     e( 10 - 10) =      2.81156  eV     1   --> A              
     e( 11 - 11) =      3.93107  eV     1   --> A              
     e( 12 - 12) =      5.01837  eV     1   --> A              
     e( 13 - 13) =      5.31546  eV     1   --> A              
     e( 14 - 14) =      7.08362  eV     1   --> A              
     e( 15 - 15) =      7.48887  eV     1   --> A              
     e( 16 - 16) =      7.58648  eV     1   --> A              
     e( 17 - 17) =      7.83365  eV     1   --> A              
     e( 18 - 18) =      9.70764  eV     1   --> A              
     e( 19 - 19) =      9.82440  eV     1   --> A              
     e( 20 - 20) =      9.93110  eV     1   --> A              

 **************************************************************************

 **************************************************************************

                    xk=(  -0.02614,   0.04528,   0.00000  )

     Band symmetry, C_1 (1)     point group:

     e(  1 -  1) =    -20.02412  eV     1   --> A              
     e(  2 -  2) =    -19.73427  eV     1   --> A              
     e(  3 -  3) =     -8.43951  eV     1   --> A              
     e(  4 -  4) =     -7.10430  eV     1   --> A              
     e(  5 -  5) =     -4.01205  eV     1   --> A              
     e(  6 -  6) =     -3.91973  eV     1   --> A              
     e(  7 -  7) =     -3.55327  eV     1   --> A              
     e(  8 -  8) =     -3.46473  eV     1   --> A              
     e(  9 -  9) =      2.38204  eV     1   --> A              
     e( 10 - 10) =      2.83972  eV     1   --> A              
     e( 11 - 11) =      3.96009  eV     1   --> A              
     e( 12 - 12) =      5.04707  eV     1   --> A              
     e( 13 - 13) =      5.34262  eV     1   --> A              
     e( 14 - 14) =      7.10606  eV     1   --> A              
     e( 15 - 15) =      7.50217  eV     1   --> A              
     e( 16 - 16) =      7.67192  eV     1   --> A              
     e( 17 - 17) =      7.86137  eV     1   --> A              
     e( 18 - 18) =      9.69752  eV     1   --> A              
     e( 19 - 19) =      9.89919  eV     1   --> A              
     e( 20 - 20) =      9.94112  eV     1   --> A              

 **************************************************************************

 **************************************************************************

                    xk=(  -0.03268,   0.05660,   0.00000  )

     Band symmetry, C_1 (1)     point group:

     e(  1 -  1) =    -19.99764  eV     1   --> A              
     e(  2 -  2) =    -19.71144  eV     1   --> A              
     e(  3 -  3) =     -8.40745  eV     1   --> A              
     e(  4 -  4) =     -7.07416  eV     1   --> A              
     e(  5 -  5) =     -4.11811  eV     1   --> A              
     e(  6 -  6) =     -3.97720  eV     1   --> A              
     e(  7 -  7) =     -3.64643  eV     1   --> A              
     e(  8 -  8) =     -3.51062  eV     1   --> A              
     e(  9 -  9) =      2.41946  eV     1   --> A              
     e( 10 - 10) =      2.87588  eV     1   --> A              
     e( 11 - 11) =      3.99737  eV     1   --> A              
     e( 12 - 12) =      5.08392  eV     1   --> A              
     e( 13 - 13) =      5.37736  eV     1   --> A              
     e( 14 - 14) =      7.13458  eV     1   --> A              
     e( 15 - 15) =      7.51960  eV     1   --> A              
     e( 16 - 16) =      7.77805  eV     1   --> A              
     e( 17 - 17) =      7.89667  eV     1   --> A              
     e( 18 - 18) =      9.68621  eV     1   --> A              
     e( 19 - 19) =      9.94364  eV     1   --> A              
     e( 20 - 20) =     10.00117  eV     1   --> A              

 **************************************************************************

 **************************************************************************

                    xk=(  -0.03922,   0.06792,   0.00000  )

     Band symmetry, C_1 (1)     point group:

     e(  1 -  1) =    -19.96528  eV     1   --> A              
     e(  2 -  2) =    -19.68355  eV     1   --> A              
     e(  3 -  3) =     -8.36826  eV     1   --> A              
     e(  4 -  4) =     -7.03729  eV     1   --> A              
     e(  5 -  5) =     -4.24412  eV     1   --> A              
     e(  6 -  6) =     -4.04685  eV     1   --> A              
     e(  7 -  7) =     -3.75748  eV     1   --> A              
     e(  8 -  8) =     -3.56626  eV     1   --> A              
     e(  9 -  9) =      2.46504  eV     1   --> A              
     e( 10 - 10) =      2.92002  eV     1   --> A              
     e( 11 - 11) =      4.04290  eV     1   --> A              
     e( 12 - 12) =      5.12889  eV     1   --> A              
     e( 13 - 13) =      5.41959  eV     1   --> A              
     e( 14 - 14) =      7.16894  eV     1   --> A              
     e( 15 - 15) =      7.54184  eV     1   --> A              
     e( 16 - 16) =      7.90196  eV     1   --> A              
     e( 17 - 17) =      7.93936  eV     1   --> A              
     e( 18 - 18) =      9.67068  eV     1   --> A              
     e( 19 - 19) =      9.94031  eV     1   --> A              
     e( 20 - 20) =      9.98134  eV     1   --> A              

 **************************************************************************

 **************************************************************************

                    xk=(  -0.04575,   0.07924,   0.00000  )

     Band symmetry, C_1 (1)     point group:

     e(  1 -  1) =    -19.92707  eV     1   --> A              
     e(  2 -  2) =    -19.65064  eV     1   --> A              
     e(  3 -  3) =     -8.32197  eV     1   --> A              
     e(  4 -  4) =     -6.99380  eV     1   --> A              
     e(  5 -  5) =     -4.38846  eV     1   --> A              
     e(  6 -  6) =     -4.12825  eV     1   --> A              
     e(  7 -  7) =     -3.88513  eV     1   --> A              
     e(  8 -  8) =     -3.63132  eV     1   --> A              
     e(  9 -  9) =      2.51872  eV     1   --> A              
     e( 10 - 10) =      2.97210  eV     1   --> A              
     e( 11 - 11) =      4.09667  eV     1   --> A              
     e( 12 - 12) =      5.18194  eV     1   --> A              
     e( 13 - 13) =      5.46915  eV     1   --> A              
     e( 14 - 14) =      7.20882  eV     1   --> A              
     e( 15 - 15) =      7.56897  eV     1   --> A              
     e( 16 - 16) =      7.98927  eV     1   --> A              
     e( 17 - 17) =      8.04085  eV     1   --> A              
     e( 18 - 18) =      9.65342  eV     1   --> A              
     e( 19 - 19) =      9.84182  eV     1   --> A              
     e( 20 - 20) =      9.96681  eV     1   --> A              

 **************************************************************************

 **************************************************************************

                    xk=(  -0.05229,   0.09057,   0.00000  )

     Band symmetry, C_1 (1)     point group:

     e(  1 -  1) =    -19.88304  eV     1   --> A              
     e(  2 -  2) =    -19.61272  eV     1   --> A              
     e(  3 -  3) =     -8.26866  eV     1   --> A              
     e(  4 -  4) =     -6.94372  eV     1   --> A              
     e(  5 -  5) =     -4.54938  eV     1   --> A              
     e(  6 -  6) =     -4.22124  eV     1   --> A              
     e(  7 -  7) =     -4.02791  eV     1   --> A              
     e(  8 -  8) =     -3.70561  eV     1   --> A              
     e(  9 -  9) =      2.58043  eV     1   --> A              
     e( 10 - 10) =      3.03209  eV     1   --> A              
     e( 11 - 11) =      4.15865  eV     1   --> A              
     e( 12 - 12) =      5.24304  eV     1   --> A              
     e( 13 - 13) =      5.52590  eV     1   --> A              
     e( 14 - 14) =      7.25377  eV     1   --> A              
     e( 15 - 15) =      7.60096  eV     1   --> A              
     e( 16 - 16) =      8.04616  eV     1   --> A              
     e( 17 - 17) =      8.19117  eV     1   --> A              
     e( 18 - 18) =      9.61251  eV     1   --> A              
     e( 19 - 19) =      9.73468  eV     1   --> A              
     e( 20 - 20) =      9.96956  eV     1   --> A              

 **************************************************************************

 **************************************************************************

                    xk=(  -0.05882,   0.10189,   0.00000  )

     Band symmetry, C_1 (1)     point group:

     e(  1 -  1) =    -19.83320  eV     1   --> A              
     e(  2 -  2) =    -19.56981  eV     1   --> A              
     e(  3 -  3) =     -8.20832  eV     1   --> A              
     e(  4 -  4) =     -6.88709  eV     1   --> A              
     e(  5 -  5) =     -4.72473  eV     1   --> A              
     e(  6 -  6) =     -4.32517  eV     1   --> A              
     e(  7 -  7) =     -4.18405  eV     1   --> A              
     e(  8 -  8) =     -3.78864  eV     1   --> A              
     e(  9 -  9) =      2.65013  eV     1   --> A              
     e( 10 - 10) =      3.09995  eV     1   --> A              
     e( 11 - 11) =      4.22884  eV     1   --> A              
     e( 12 - 12) =      5.31214  eV     1   --> A              
     e( 13 - 13) =      5.58966  eV     1   --> A              
     e( 14 - 14) =      7.30333  eV     1   --> A              
     e( 15 - 15) =      7.63851  eV     1   --> A              
     e( 16 - 16) =      8.10982  eV     1   --> A              
     e( 17 - 17) =      8.34940  eV     1   --> A              
     e( 18 - 18) =      9.49622  eV     1   --> A              
     e( 19 - 19) =      9.68903  eV     1   --> A              
     e( 20 - 20) =      9.96880  eV     1   --> A              

 **************************************************************************

 **************************************************************************

                    xk=(  -0.06536,   0.11321,   0.00000  )

     Band symmetry, C_1 (1)     point group:

     e(  1 -  1) =    -19.77760  eV     1   --> A              
     e(  2 -  2) =    -19.52194  eV     1   --> A              
     e(  3 -  3) =     -8.14100  eV     1   --> A              
     e(  4 -  4) =     -6.82396  eV     1   --> A              
     e(  5 -  5) =     -4.91289  eV     1   --> A              
     e(  6 -  6) =     -4.43987  eV     1   --> A              
     e(  7 -  7) =     -4.35192  eV     1   --> A              
     e(  8 -  8) =     -3.88011  eV     1   --> A              
     e(  9 -  9) =      2.72775  eV     1   --> A              
     e( 10 - 10) =      3.17564  eV     1   --> A              
     e( 11 - 11) =      4.30721  eV     1   --> A              
     e( 12 - 12) =      5.38919  eV     1   --> A              
     e( 13 - 13) =      5.66025  eV     1   --> A              
     e( 14 - 14) =      7.35686  eV     1   --> A              
     e( 15 - 15) =      7.68167  eV     1   --> A              
     e( 16 - 16) =      8.17994  eV     1   --> A              
     e( 17 - 17) =      8.51192  eV     1   --> A              
     e( 18 - 18) =      9.33183  eV     1   --> A              
     e( 19 - 19) =      9.68033  eV     1   --> A              
     e( 20 - 20) =      9.96196  eV     1   --> A              

 **************************************************************************

 **************************************************************************

                    xk=(  -0.07189,   0.12453,   0.00000  )

     Band symmetry, C_1 (1)     point group:

     e(  1 -  1) =    -19.71625  eV     1   --> A              
     e(  2 -  2) =    -19.46911  eV     1   --> A              
     e(  3 -  3) =     -8.06674  eV     1   --> A              
     e(  4 -  4) =     -6.75438  eV     1   --> A              
     e(  5 -  5) =     -5.11206  eV     1   --> A              
     e(  6 -  6) =     -4.56618  eV     1   --> A              
     e(  7 -  7) =     -4.52853  eV     1   --> A              
     e(  8 -  8) =     -3.97954  eV     1   --> A              
     e(  9 -  9) =      2.81327  eV     1   --> A              
     e( 10 - 10) =      3.25911  eV     1   --> A              
     e( 11 - 11) =      4.39376  eV     1   --> A              
     e( 12 - 12) =      5.47415  eV     1   --> A              
     e( 13 - 13) =      5.73745  eV     1   --> A              
     e( 14 - 14) =      7.41354  eV     1   --> A              
     e( 15 - 15) =      7.73074  eV     1   --> A              
     e( 16 - 16) =      8.25625  eV     1   --> A              
     e( 17 - 17) =      8.67555  eV     1   --> A              
     e( 18 - 18) =      9.14630  eV     1   --> A              
     e( 19 - 19) =      9.68393  eV     1   --> A              
     e( 20 - 20) =      9.94742  eV     1   --> A              

 **************************************************************************

 **************************************************************************

                    xk=(  -0.07843,   0.13585,   0.00000  )

     Band symmetry, C_1 (1)     point group:

     e(  1 -  1) =    -19.64922  eV     1   --> A              
     e(  2 -  2) =    -19.41136  eV     1   --> A              
     e(  3 -  3) =     -7.98555  eV     1   --> A              
     e(  4 -  4) =     -6.67844  eV     1   --> A              
     e(  5 -  5) =     -5.32062  eV     1   --> A              
     e(  6 -  6) =     -4.72490  eV     1   --> A              
     e(  7 -  7) =     -4.69118  eV     1   --> A              
     e(  8 -  8) =     -4.08653  eV     1   --> A              
     e(  9 -  9) =      2.90665  eV     1   --> A              
     e( 10 - 10) =      3.35031  eV     1   --> A              
     e( 11 - 11) =      4.48847  eV     1   --> A              
     e( 12 - 12) =      5.56691  eV     1   --> A              
     e( 13 - 13) =      5.82096  eV     1   --> A              
     e( 14 - 14) =      7.47232  eV     1   --> A              
     e( 15 - 15) =      7.78579  eV     1   --> A              
     e( 16 - 16) =      8.33817  eV     1   --> A              
     e( 17 - 17) =      8.83721  eV     1   --> A              
     e( 18 - 18) =      8.94553  eV     1   --> A              
     e( 19 - 19) =      9.69465  eV     1   --> A              
     e( 20 - 20) =      9.92425  eV     1   --> A              

 **************************************************************************

 **************************************************************************

                    xk=(  -0.08497,   0.14717,   0.00000  )

     Band symmetry, C_1 (1)     point group:

     e(  1 -  1) =    -19.57655  eV     1   --> A              
     e(  2 -  2) =    -19.34870  eV     1   --> A              
     e(  3 -  3) =     -7.89742  eV     1   --> A              
     e(  4 -  4) =     -6.59615  eV     1   --> A              
     e(  5 -  5) =     -5.53720  eV     1   --> A              
     e(  6 -  6) =     -4.91780  eV     1   --> A              
     e(  7 -  7) =     -4.83609  eV     1   --> A              
     e(  8 -  8) =     -4.20056  eV     1   --> A              
     e(  9 -  9) =      3.00787  eV     1   --> A              
     e( 10 - 10) =      3.44918  eV     1   --> A              
     e( 11 - 11) =      4.59133  eV     1   --> A              
     e( 12 - 12) =      5.66738  eV     1   --> A              
     e( 13 - 13) =      5.91047  eV     1   --> A              
     e( 14 - 14) =      7.53188  eV     1   --> A              
     e( 15 - 15) =      7.84683  eV     1   --> A              
     e( 16 - 16) =      8.42528  eV     1   --> A              
     e( 17 - 17) =      8.73175  eV     1   --> A              
     e( 18 - 18) =      8.99473  eV     1   --> A              
     e( 19 - 19) =      9.71277  eV     1   --> A              
     e( 20 - 20) =      9.89330  eV     1   --> A              

 **************************************************************************

 **************************************************************************

                    xk=(  -0.09150,   0.15849,   0.00000  )

     Band symmetry, C_1 (1)     point group:

     e(  1 -  1) =    -19.49834  eV     1   --> A              
     e(  2 -  2) =    -19.28115  eV     1   --> A              
     e(  3 -  3) =     -7.80255  eV     1   --> A              
     e(  4 -  4) =     -6.50771  eV     1   --> A              
     e(  5 -  5) =     -5.76070  eV     1   --> A              
     e(  6 -  6) =     -5.11951  eV     1   --> A              
     e(  7 -  7) =     -4.98701  eV     1   --> A              
     e(  8 -  8) =     -4.32123  eV     1   --> A              
     e(  9 -  9) =      3.11690  eV     1   --> A              
     e( 10 - 10) =      3.55563  eV     1   --> A              
     e( 11 - 11) =      4.70233  eV     1   --> A              
     e( 12 - 12) =      5.77538  eV     1   --> A              
     e( 13 - 13) =      6.00548  eV     1   --> A              
     e( 14 - 14) =      7.59020  eV     1   --> A              
     e( 15 - 15) =      7.91357  eV     1   --> A              
     e( 16 - 16) =      8.50377  eV     1   --> A              
     e( 17 - 17) =      8.51992  eV     1   --> A              
     e( 18 - 18) =      9.14523  eV     1   --> A              
     e( 19 - 19) =      9.73737  eV     1   --> A              
     e( 20 - 20) =      9.85712  eV     1   --> A              

 **************************************************************************

 **************************************************************************

                    xk=(  -0.09804,   0.16981,   0.00000  )

     Band symmetry, C_1 (1)     point group:

     e(  1 -  1) =    -19.41470  eV     1   --> A              
     e(  2 -  2) =    -19.20868  eV     1   --> A              
     e(  3 -  3) =     -7.70098  eV     1   --> A              
     e(  4 -  4) =     -6.41330  eV     1   --> A              
     e(  5 -  5) =     -5.98929  eV     1   --> A              
     e(  6 -  6) =     -5.32657  eV     1   --> A              
     e(  7 -  7) =     -5.14503  eV     1   --> A              
     e(  8 -  8) =     -4.44796  eV     1   --> A              
     e(  9 -  9) =      3.23372  eV     1   --> A              
     e( 10 - 10) =      3.66957  eV     1   --> A              
     e( 11 - 11) =      4.82145  eV     1   --> A              
     e( 12 - 12) =      5.89060  eV     1   --> A              
     e( 13 - 13) =      6.10543  eV     1   --> A              
     e( 14 - 14) =      7.64463  eV     1   --> A              
     e( 15 - 15) =      7.98591  eV     1   --> A              
     e( 16 - 16) =      8.27217  eV     1   --> A              
     e( 17 - 17) =      8.61218  eV     1   --> A              
     e( 18 - 18) =      9.28784  eV     1   --> A              
     e( 19 - 19) =      9.76532  eV     1   --> A              
     e( 20 - 20) =      9.82362  eV     1   --> A              

 **************************************************************************

 **************************************************************************

                    xk=(  -0.10457,   0.18113,   0.00000  )

     Band symmetry, C_1 (1)     point group:

     e(  1 -  1) =    -19.32576  eV     1   --> A              
     e(  2 -  2) =    -19.13128  eV     1   --> A              
     e(  3 -  3) =     -7.59281  eV     1   --> A              
     e(  4 -  4) =     -6.31327  eV     1   --> A              
     e(  5 -  5) =     -6.22200  eV     1   --> A              
     e(  6 -  6) =     -5.53760  eV     1   --> A              
     e(  7 -  7) =     -5.30977  eV     1   --> A              
     e(  8 -  8) =     -4.58023  eV     1   --> A              
     e(  9 -  9) =      3.35832  eV     1   --> A              
     e( 10 - 10) =      3.79088  eV     1   --> A              
     e( 11 - 11) =      4.94867  eV     1   --> A              
     e( 12 - 12) =      6.01250  eV     1   --> A              
     e( 13 - 13) =      6.20960  eV     1   --> A              
     e( 14 - 14) =      7.69080  eV     1   --> A              
     e( 15 - 15) =      8.02747  eV     1   --> A              
     e( 16 - 16) =      8.06724  eV     1   --> A              
     e( 17 - 17) =      8.70964  eV     1   --> A              
     e( 18 - 18) =      9.42170  eV     1   --> A              
     e( 19 - 19) =      9.76920  eV     1   --> A              
     e( 20 - 20) =      9.82722  eV     1   --> A              

 **************************************************************************

 **************************************************************************

                    xk=(  -0.11111,   0.19245,   0.00000  )

     Band symmetry, C_1 (1)     point group:

     e(  1 -  1) =    -19.23170  eV     1   --> A              
     e(  2 -  2) =    -19.04887  eV     1   --> A              
     e(  3 -  3) =     -7.47817  eV     1   --> A              
     e(  4 -  4) =     -6.45860  eV     1   --> A              
     e(  5 -  5) =     -6.20769  eV     1   --> A              
     e(  6 -  6) =     -5.75087  eV     1   --> A              
     e(  7 -  7) =     -5.48070  eV     1   --> A              
     e(  8 -  8) =     -4.71754  eV     1   --> A              
     e(  9 -  9) =      3.49068  eV     1   --> A              
     e( 10 - 10) =      3.91941  eV     1   --> A              
     e( 11 - 11) =      5.08396  eV     1   --> A              
     e( 12 - 12) =      6.13995  eV     1   --> A              
     e( 13 - 13) =      6.31718  eV     1   --> A              
     e( 14 - 14) =      7.70439  eV     1   --> A              
     e( 15 - 15) =      7.80312  eV     1   --> A              
     e( 16 - 16) =      8.14858  eV     1   --> A              
     e( 17 - 17) =      8.80853  eV     1   --> A              
     e( 18 - 18) =      9.54597  eV     1   --> A              
     e( 19 - 19) =      9.75405  eV     1   --> A              
     e( 20 - 20) =      9.87182  eV     1   --> A              

 **************************************************************************

 **************************************************************************

                    xk=(  -0.11765,   0.20377,   0.00000  )

     Band symmetry, C_1 (1)     point group:

     e(  1 -  1) =    -19.13279  eV     1   --> A              
     e(  2 -  2) =    -18.96132  eV     1   --> A              
     e(  3 -  3) =     -7.35731  eV     1   --> A              
     e(  4 -  4) =     -6.69691  eV     1   --> A              
     e(  5 -  5) =     -6.10387  eV     1   --> A              
     e(  6 -  6) =     -5.95867  eV     1   --> A              
     e(  7 -  7) =     -5.65708  eV     1   --> A              
     e(  8 -  8) =     -4.85929  eV     1   --> A              
     e(  9 -  9) =      3.63079  eV     1   --> A              
     e( 10 - 10) =      4.05495  eV     1   --> A              
     e( 11 - 11) =      5.22728  eV     1   --> A              
     e( 12 - 12) =      6.27030  eV     1   --> A              
     e( 13 - 13) =      6.42782  eV     1   --> A              
     e( 14 - 14) =      7.50391  eV     1   --> A              
     e( 15 - 15) =      7.77116  eV     1   --> A              
     e( 16 - 16) =      8.23807  eV     1   --> A              
     e( 17 - 17) =      8.90798  eV     1   --> A              
     e( 18 - 18) =      9.65844  eV     1   --> A              
     e( 19 - 19) =      9.75863  eV     1   --> A              
     e( 20 - 20) =      9.92936  eV     1   --> A              

 **************************************************************************

 **************************************************************************

                    xk=(  -0.12418,   0.21509,   0.00000  )

     Band symmetry, C_1 (1)     point group:

     e(  1 -  1) =    -19.02941  eV     1   --> A              
     e(  2 -  2) =    -18.86841  eV     1   --> A              
     e(  3 -  3) =     -7.23069  eV     1   --> A              
     e(  4 -  4) =     -6.93697  eV     1   --> A              
     e(  5 -  5) =     -6.19580  eV     1   --> A              
     e(  6 -  6) =     -5.96583  eV     1   --> A              
     e(  7 -  7) =     -5.83864  eV     1   --> A              
     e(  8 -  8) =     -5.00514  eV     1   --> A              
     e(  9 -  9) =      3.77861  eV     1   --> A              
     e( 10 - 10) =      4.19719  eV     1   --> A              
     e( 11 - 11) =      5.37856  eV     1   --> A              
     e( 12 - 12) =      6.39692  eV     1   --> A              
     e( 13 - 13) =      6.54316  eV     1   --> A              
     e( 14 - 14) =      7.24406  eV     1   --> A              
     e( 15 - 15) =      7.77970  eV     1   --> A              
     e( 16 - 16) =      8.33366  eV     1   --> A              
     e( 17 - 17) =      9.00855  eV     1   --> A              
     e( 18 - 18) =      9.74842  eV     1   --> A              
     e( 19 - 19) =      9.80392  eV     1   --> A              
     e( 20 - 20) =      9.99711  eV     1   --> A              

 **************************************************************************

 **************************************************************************

                    xk=(  -0.13072,   0.22641,   0.00000  )

     Band symmetry, C_1 (1)     point group:

     e(  1 -  1) =    -18.92203  eV     1   --> A              
     e(  2 -  2) =    -18.76982  eV     1   --> A              
     e(  3 -  3) =     -7.17830  eV     1   --> A              
     e(  4 -  4) =     -7.09907  eV     1   --> A              
     e(  5 -  5) =     -6.40739  eV     1   --> A              
     e(  6 -  6) =     -6.02454  eV     1   --> A              
     e(  7 -  7) =     -5.84649  eV     1   --> A              
     e(  8 -  8) =     -5.15443  eV     1   --> A              
     e(  9 -  9) =      3.93412  eV     1   --> A              
     e( 10 - 10) =      4.34571  eV     1   --> A              
     e( 11 - 11) =      5.53770  eV     1   --> A              
     e( 12 - 12) =      6.50509  eV     1   --> A              
     e( 13 - 13) =      6.66860  eV     1   --> A              
     e( 14 - 14) =      6.97978  eV     1   --> A              
     e( 15 - 15) =      7.78146  eV     1   --> A              
     e( 16 - 16) =      8.43574  eV     1   --> A              
     e( 17 - 17) =      9.11201  eV     1   --> A              
     e( 18 - 18) =      9.82020  eV     1   --> A              
     e( 19 - 19) =      9.89001  eV     1   --> A              
     e( 20 - 20) =     10.07443  eV     1   --> A              

 **************************************************************************

 **************************************************************************

                    xk=(  -0.13725,   0.23773,   0.00000  )

     Band symmetry, C_1 (1)     point group:

     e(  1 -  1) =    -18.81131  eV     1   --> A              
     e(  2 -  2) =    -18.66508  eV     1   --> A              
     e(  3 -  3) =     -7.41920  eV     1   --> A              
     e(  4 -  4) =     -6.96932  eV     1   --> A              
     e(  5 -  5) =     -6.61457  eV     1   --> A              
     e(  6 -  6) =     -6.21414  eV     1   --> A              
     e(  7 -  7) =     -5.71849  eV     1   --> A              
     e(  8 -  8) =     -5.30659  eV     1   --> A              
     e(  9 -  9) =      4.09727  eV     1   --> A              
     e( 10 - 10) =      4.49987  eV     1   --> A              
     e( 11 - 11) =      5.70444  eV     1   --> A              
     e( 12 - 12) =      6.56492  eV     1   --> A              
     e( 13 - 13) =      6.71106  eV     1   --> A              
     e( 14 - 14) =      6.82774  eV     1   --> A              
     e( 15 - 15) =      7.78445  eV     1   --> A              
     e( 16 - 16) =      8.54460  eV     1   --> A              
     e( 17 - 17) =      9.22108  eV     1   --> A              
     e( 18 - 18) =      9.90814  eV     1   --> A              
     e( 19 - 19) =      9.98285  eV     1   --> A              
     e( 20 - 20) =     10.16059  eV     1   --> A              

 **************************************************************************

 **************************************************************************

                    xk=(  -0.14379,   0.24905,   0.00000  )

     Band symmetry, C_1 (1)     point group:

     e(  1 -  1) =    -18.69803  eV     1   --> A              
     e(  2 -  2) =    -18.55362  eV     1   --> A              
     e(  3 -  3) =     -7.65991  eV     1   --> A              
     e(  4 -  4) =     -6.91676  eV     1   --> A              
     e(  5 -  5) =     -6.73788  eV     1   --> A              
     e(  6 -  6) =     -6.40694  eV     1   --> A              
     e(  7 -  7) =     -5.58542  eV     1   --> A              
     e(  8 -  8) =     -5.46059  eV     1   --> A              
     e(  9 -  9) =      4.26801  eV     1   --> A              
     e( 10 - 10) =      4.65862  eV     1   --> A              
     e( 11 - 11) =      5.87817  eV     1   --> A              
     e( 12 - 12) =      6.40035  eV     1   --> A              
     e( 13 - 13) =      6.64333  eV     1   --> A              
     e( 14 - 14) =      6.98168  eV     1   --> A              
     e( 15 - 15) =      7.80302  eV     1   --> A              
     e( 16 - 16) =      8.66008  eV     1   --> A              
     e( 17 - 17) =      9.33822  eV     1   --> A              
     e( 18 - 18) =     10.01662  eV     1   --> A              
     e( 19 - 19) =     10.07571  eV     1   --> A              
     e( 20 - 20) =     10.25431  eV     1   --> A              

 **************************************************************************

 **************************************************************************

                    xk=(  -0.15033,   0.26037,   0.00000  )

     Band symmetry, C_1 (1)     point group:

     e(  1 -  1) =    -18.58292  eV     1   --> A              
     e(  2 -  2) =    -18.43494  eV     1   --> A              
     e(  3 -  3) =     -7.89982  eV     1   --> A              
     e(  4 -  4) =     -7.08757  eV     1   --> A              
     e(  5 -  5) =     -6.63154  eV     1   --> A              
     e(  6 -  6) =     -6.60130  eV     1   --> A              
     e(  7 -  7) =     -5.61936  eV     1   --> A              
     e(  8 -  8) =     -5.44436  eV     1   --> A              
     e(  9 -  9) =      4.44624  eV     1   --> A              
     e( 10 - 10) =      4.82027  eV     1   --> A              
     e( 11 - 11) =      6.05305  eV     1   --> A              
     e( 12 - 12) =      6.13364  eV     1   --> A              
     e( 13 - 13) =      6.62906  eV     1   --> A              
     e( 14 - 14) =      7.15486  eV     1   --> A              
     e( 15 - 15) =      7.85060  eV     1   --> A              
     e( 16 - 16) =      8.78232  eV     1   --> A              
     e( 17 - 17) =      9.46476  eV     1   --> A              
     e( 18 - 18) =     10.13412  eV     1   --> A              
     e( 19 - 19) =     10.17705  eV     1   --> A              
     e( 20 - 20) =     10.35479  eV     1   --> A              

 **************************************************************************

 **************************************************************************

                    xk=(  -0.15686,   0.27170,   0.00000  )

     Band symmetry, C_1 (1)     point group:

     e(  1 -  1) =    -18.46653  eV     1   --> A              
     e(  2 -  2) =    -18.30874  eV     1   --> A              
     e(  3 -  3) =     -8.13848  eV     1   --> A              
     e(  4 -  4) =     -7.29463  eV     1   --> A              
     e(  5 -  5) =     -6.80044  eV     1   --> A              
     e(  6 -  6) =     -6.47839  eV     1   --> A              
     e(  7 -  7) =     -5.77713  eV     1   --> A              
     e(  8 -  8) =     -5.30093  eV     1   --> A              
     e(  9 -  9) =      4.63178  eV     1   --> A              
     e( 10 - 10) =      4.98166  eV     1   --> A              
     e( 11 - 11) =      5.84643  eV     1   --> A              
     e( 12 - 12) =      6.24151  eV     1   --> A              
     e( 13 - 13) =      6.58572  eV     1   --> A              
     e( 14 - 14) =      7.33858  eV     1   --> A              
     e( 15 - 15) =      7.93270  eV     1   --> A              
     e( 16 - 16) =      8.91111  eV     1   --> A              
     e( 17 - 17) =      9.60089  eV     1   --> A              
     e( 18 - 18) =     10.23477  eV     1   --> A              
     e( 19 - 19) =     10.30901  eV     1   --> A              
     e( 20 - 20) =     10.46180  eV     1   --> A              

 **************************************************************************

 **************************************************************************

                    xk=(  -0.16340,   0.28302,   0.00000  )

     Band symmetry, C_1 (1)     point group:

     e(  1 -  1) =    -18.34916  eV     1   --> A              
     e(  2 -  2) =    -18.17501  eV     1   --> A              
     e(  3 -  3) =     -8.37537  eV     1   --> A              
     e(  4 -  4) =     -7.50347  eV     1   --> A              
     e(  5 -  5) =     -6.99957  eV     1   --> A              
     e(  6 -  6) =     -6.31680  eV     1   --> A              
     e(  7 -  7) =     -5.93582  eV     1   --> A              
     e(  8 -  8) =     -5.15250  eV     1   --> A              
     e(  9 -  9) =      4.82426  eV     1   --> A              
     e( 10 - 10) =      5.13645  eV     1   --> A              
     e( 11 - 11) =      5.56572  eV     1   --> A              
     e( 12 - 12) =      6.38209  eV     1   --> A              
     e( 13 - 13) =      6.56388  eV     1   --> A              
     e( 14 - 14) =      7.53119  eV     1   --> A              
     e( 15 - 15) =      8.04658  eV     1   --> A              
     e( 16 - 16) =      9.04639  eV     1   --> A              
     e( 17 - 17) =      9.74602  eV     1   --> A              
     e( 18 - 18) =     10.32431  eV     1   --> A              
     e( 19 - 19) =     10.46149  eV     1   --> A              
     e( 20 - 20) =     10.57710  eV     1   --> A              

 **************************************************************************

 **************************************************************************

                    xk=(  -0.16993,   0.29434,   0.00000  )

     Band symmetry, C_1 (1)     point group:

     e(  1 -  1) =    -18.23082  eV     1   --> A              
     e(  2 -  2) =    -18.03401  eV     1   --> A              
     e(  3 -  3) =     -8.61020  eV     1   --> A              
     e(  4 -  4) =     -7.71023  eV     1   --> A              
     e(  5 -  5) =     -7.19986  eV     1   --> A              
     e(  6 -  6) =     -6.15786  eV     1   --> A              
     e(  7 -  7) =     -6.08565  eV     1   --> A              
     e(  8 -  8) =     -4.99978  eV     1   --> A              
     e(  9 -  9) =      5.02253  eV     1   --> A              
     e( 10 - 10) =      5.24395  eV     1   --> A              
     e( 11 - 11) =      5.31450  eV     1   --> A              
     e( 12 - 12) =      6.36690  eV     1   --> A              
     e( 13 - 13) =      6.70150  eV     1   --> A              
     e( 14 - 14) =      7.73186  eV     1   --> A              
     e( 15 - 15) =      8.18593  eV     1   --> A              
     e( 16 - 16) =      9.18777  eV     1   --> A              
     e( 17 - 17) =      9.89904  eV     1   --> A              
     e( 18 - 18) =     10.41089  eV     1   --> A              
     e( 19 - 19) =     10.61801  eV     1   --> A              
     e( 20 - 20) =     10.70653  eV     1   --> A              

 **************************************************************************

 **************************************************************************

                    xk=(  -0.17647,   0.30566,   0.00000  )

     Band symmetry, C_1 (1)     point group:

     e(  1 -  1) =    -18.11150  eV     1   --> A              
     e(  2 -  2) =    -17.88615  eV     1   --> A              
     e(  3 -  3) =     -8.84273  eV     1   --> A              
     e(  4 -  4) =     -7.91356  eV     1   --> A              
     e(  5 -  5) =     -7.40078  eV     1   --> A              
     e(  6 -  6) =     -6.26164  eV     1   --> A              
     e(  7 -  7) =     -5.96704  eV     1   --> A              
     e(  8 -  8) =     -4.84311  eV     1   --> A              
     e(  9 -  9) =      4.99250  eV     1   --> A              
     e( 10 - 10) =      5.22069  eV     1   --> A              
     e( 11 - 11) =      5.38802  eV     1   --> A              
     e( 12 - 12) =      6.32105  eV     1   --> A              
     e( 13 - 13) =      6.90514  eV     1   --> A              
     e( 14 - 14) =      7.93998  eV     1   --> A              
     e( 15 - 15) =      8.34474  eV     1   --> A              
     e( 16 - 16) =      9.33520  eV     1   --> A              
     e( 17 - 17) =     10.05860  eV     1   --> A              
     e( 18 - 18) =     10.49600  eV     1   --> A              
     e( 19 - 19) =     10.76426  eV     1   --> A              
     e( 20 - 20) =     10.86097  eV     1   --> A              

 **************************************************************************

 **************************************************************************

                    xk=(  -0.18300,   0.31698,   0.00000  )

     Band symmetry, C_1 (1)     point group:

     e(  1 -  1) =    -17.99117  eV     1   --> A              
     e(  2 -  2) =    -17.73181  eV     1   --> A              
     e(  3 -  3) =     -9.07253  eV     1   --> A              
     e(  4 -  4) =     -8.11246  eV     1   --> A              
     e(  5 -  5) =     -7.60177  eV     1   --> A              
     e(  6 -  6) =     -6.42104  eV     1   --> A              
     e(  7 -  7) =     -5.78710  eV     1   --> A              
     e(  8 -  8) =     -4.68283  eV     1   --> A              
     e(  9 -  9) =      4.71080  eV     1   --> A              
     e( 10 - 10) =      5.35227  eV     1   --> A              
     e( 11 - 11) =      5.49314  eV     1   --> A              
     e( 12 - 12) =      6.33262  eV     1   --> A              
     e( 13 - 13) =      7.12499  eV     1   --> A              
     e( 14 - 14) =      8.15500  eV     1   --> A              
     e( 15 - 15) =      8.51852  eV     1   --> A              
     e( 16 - 16) =      9.48828  eV     1   --> A              
     e( 17 - 17) =     10.22307  eV     1   --> A              
     e( 18 - 18) =     10.58017  eV     1   --> A              
     e( 19 - 19) =     10.89985  eV     1   --> A              
     e( 20 - 20) =     11.03876  eV     1   --> A              

 **************************************************************************

 **************************************************************************

                    xk=(  -0.18954,   0.32830,   0.00000  )

     Band symmetry, C_1 (1)     point group:

     e(  1 -  1) =    -17.86994  eV     1   --> A              
     e(  2 -  2) =    -17.57140  eV     1   --> A              
     e(  3 -  3) =     -9.29956  eV     1   --> A              
     e(  4 -  4) =     -8.30640  eV     1   --> A              
     e(  5 -  5) =     -7.80264  eV     1   --> A              
     e(  6 -  6) =     -6.58112  eV     1   --> A              
     e(  7 -  7) =     -5.60103  eV     1   --> A              
     e(  8 -  8) =     -4.51948  eV     1   --> A              
     e(  9 -  9) =      4.42917  eV     1   --> A              
     e( 10 - 10) =      5.31241  eV     1   --> A              
     e( 11 - 11) =      5.69363  eV     1   --> A              
     e( 12 - 12) =      6.42371  eV     1   --> A              
     e( 13 - 13) =      7.35500  eV     1   --> A              
     e( 14 - 14) =      8.37621  eV     1   --> A              
     e( 15 - 15) =      8.70413  eV     1   --> A              
     e( 16 - 16) =      9.64648  eV     1   --> A              
     e( 17 - 17) =     10.39033  eV     1   --> A              
     e( 18 - 18) =     10.66344  eV     1   --> A              
     e( 19 - 19) =     11.03337  eV     1   --> A              
     e( 20 - 20) =     11.22918  eV     1   --> A              

 **************************************************************************

 **************************************************************************

                    xk=(  -0.19608,   0.33962,   0.00000  )

     Band symmetry, C_1 (1)     point group:

     e(  1 -  1) =    -17.74795  eV     1   --> A              
     e(  2 -  2) =    -17.40516  eV     1   --> A              
     e(  3 -  3) =     -9.52333  eV     1   --> A              
     e(  4 -  4) =     -8.49452  eV     1   --> A              
     e(  5 -  5) =     -8.00261  eV     1   --> A              
     e(  6 -  6) =     -6.74060  eV     1   --> A              
     e(  7 -  7) =     -5.40980  eV     1   --> A              
     e(  8 -  8) =     -4.35338  eV     1   --> A              
     e(  9 -  9) =      4.14895  eV     1   --> A              
     e( 10 - 10) =      5.19271  eV     1   --> A              
     e( 11 - 11) =      5.91975  eV     1   --> A              
     e( 12 - 12) =      6.57659  eV     1   --> A              
     e( 13 - 13) =      7.59374  eV     1   --> A              
     e( 14 - 14) =      8.60268  eV     1   --> A              
     e( 15 - 15) =      8.89949  eV     1   --> A              
     e( 16 - 16) =      9.80978  eV     1   --> A              
     e( 17 - 17) =     10.55719  eV     1   --> A              
     e( 18 - 18) =     10.74734  eV     1   --> A              
     e( 19 - 19) =     11.16873  eV     1   --> A              
     e( 20 - 20) =     11.42647  eV     1   --> A              

 **************************************************************************

 **************************************************************************

                    xk=(  -0.20261,   0.35094,   0.00000  )

     Band symmetry, C_1 (1)     point group:

     e(  1 -  1) =    -17.62552  eV     1   --> A              
     e(  2 -  2) =    -17.23338  eV     1   --> A              
     e(  3 -  3) =     -9.74381  eV     1   --> A              
     e(  4 -  4) =     -8.67628  eV     1   --> A              
     e(  5 -  5) =     -8.20154  eV     1   --> A              
     e(  6 -  6) =     -6.89919  eV     1   --> A              
     e(  7 -  7) =     -5.21386  eV     1   --> A              
     e(  8 -  8) =     -4.18506  eV     1   --> A              
     e(  9 -  9) =      3.87062  eV     1   --> A              
     e( 10 - 10) =      5.03557  eV     1   --> A              
     e( 11 - 11) =      6.15605  eV     1   --> A              
     e( 12 - 12) =      6.76707  eV     1   --> A              
     e( 13 - 13) =      7.84062  eV     1   --> A              
     e( 14 - 14) =      8.83294  eV     1   --> A              
     e( 15 - 15) =      9.10326  eV     1   --> A              
     e( 16 - 16) =      9.97760  eV     1   --> A              
     e( 17 - 17) =     10.71651  eV     1   --> A              
     e( 18 - 18) =     10.83632  eV     1   --> A              
     e( 19 - 19) =     11.30642  eV     1   --> A              
     e( 20 - 20) =     11.62735  eV     1   --> A              

 **************************************************************************

 **************************************************************************

                    xk=(  -0.20915,   0.36226,   0.00000  )

     Band symmetry, C_1 (1)     point group:

     e(  1 -  1) =    -17.50301  eV     1   --> A              
     e(  2 -  2) =    -17.05627  eV     1   --> A              
     e(  3 -  3) =     -9.96083  eV     1   --> A              
     e(  4 -  4) =     -8.85103  eV     1   --> A              
     e(  5 -  5) =     -8.39900  eV     1   --> A              
     e(  6 -  6) =     -7.05652  eV     1   --> A              
     e(  7 -  7) =     -5.01358  eV     1   --> A              
     e(  8 -  8) =     -4.01504  eV     1   --> A              
     e(  9 -  9) =      3.59468  eV     1   --> A              
     e( 10 - 10) =      4.85990  eV     1   --> A              
     e( 11 - 11) =      6.40038  eV     1   --> A              
     e( 12 - 12) =      6.98040  eV     1   --> A              
     e( 13 - 13) =      8.09525  eV     1   --> A              
     e( 14 - 14) =      9.06461  eV     1   --> A              
     e( 15 - 15) =      9.31487  eV     1   --> A              
     e( 16 - 16) =     10.14935  eV     1   --> A              
     e( 17 - 17) =     10.84780  eV     1   --> A              
     e( 18 - 18) =     10.94823  eV     1   --> A              
     e( 19 - 19) =     11.44583  eV     1   --> A              
     e( 20 - 20) =     11.82915  eV     1   --> A              

 **************************************************************************

 **************************************************************************

                    xk=(  -0.21568,   0.37358,   0.00000  )

     Band symmetry, C_1 (1)     point group:

     e(  1 -  1) =    -17.38088  eV     1   --> A              
     e(  2 -  2) =    -16.87406  eV     1   --> A              
     e(  3 -  3) =    -10.17418  eV     1   --> A              
     e(  4 -  4) =     -9.01802  eV     1   --> A              
     e(  5 -  5) =     -8.59440  eV     1   --> A              
     e(  6 -  6) =     -7.21219  eV     1   --> A              
     e(  7 -  7) =     -4.80929  eV     1   --> A              
     e(  8 -  8) =     -3.84388  eV     1   --> A              
     e(  9 -  9) =      3.32171  eV     1   --> A              
     e( 10 - 10) =      4.67563  eV     1   --> A              
     e( 11 - 11) =      6.65204  eV     1   --> A              
     e( 12 - 12) =      7.20883  eV     1   --> A              
     e( 13 - 13) =      8.35725  eV     1   --> A              
     e( 14 - 14) =      9.29405  eV     1   --> A              
     e( 15 - 15) =      9.53465  eV     1   --> A              
     e( 16 - 16) =     10.32491  eV     1   --> A              
     e( 17 - 17) =     10.94064  eV     1   --> A              
     e( 18 - 18) =     11.09067  eV     1   --> A              
     e( 19 - 19) =     11.58569  eV     1   --> A              
     e( 20 - 20) =     12.02915  eV     1   --> A              

 **************************************************************************

 **************************************************************************

                    xk=(  -0.22222,   0.38490,   0.00000  )

     Band symmetry, C_1 (1)     point group:

     e(  1 -  1) =    -17.25967  eV     1   --> A              
     e(  2 -  2) =    -16.68694  eV     1   --> A              
     e(  3 -  3) =    -10.38370  eV     1   --> A              
     e(  4 -  4) =     -9.17663  eV     1   --> A              
     e(  5 -  5) =     -8.78754  eV     1   --> A              
     e(  6 -  6) =     -7.36599  eV     1   --> A              
     e(  7 -  7) =     -4.60147  eV     1   --> A              
     e(  8 -  8) =     -3.67230  eV     1   --> A              
     e(  9 -  9) =      3.05190  eV     1   --> A              
     e( 10 - 10) =      4.48825  eV     1   --> A              
     e( 11 - 11) =      6.91066  eV     1   --> A              
     e( 12 - 12) =      7.44806  eV     1   --> A              
     e( 13 - 13) =      8.62611  eV     1   --> A              
     e( 14 - 14) =      9.51596  eV     1   --> A              
     e( 15 - 15) =      9.76353  eV     1   --> A              
     e( 16 - 16) =     10.50322  eV     1   --> A              
     e( 17 - 17) =     11.01722  eV     1   --> A              
     e( 18 - 18) =     11.23848  eV     1   --> A              
     e( 19 - 19) =     11.72321  eV     1   --> A              
     e( 20 - 20) =     12.22422  eV     1   --> A              

 **************************************************************************

 **************************************************************************

                    xk=(  -0.22876,   0.39622,   0.00000  )

     Band symmetry, C_1 (1)     point group:

     e(  1 -  1) =    -17.14000  eV     1   --> A              
     e(  2 -  2) =    -16.49512  eV     1   --> A              
     e(  3 -  3) =    -10.58925  eV     1   --> A              
     e(  4 -  4) =     -9.32614  eV     1   --> A              
     e(  5 -  5) =     -8.97806  eV     1   --> A              
     e(  6 -  6) =     -7.51769  eV     1   --> A              
     e(  7 -  7) =     -4.39065  eV     1   --> A              
     e(  8 -  8) =     -3.50100  eV     1   --> A              
     e(  9 -  9) =      2.78568  eV     1   --> A              
     e( 10 - 10) =      4.30142  eV     1   --> A              
     e( 11 - 11) =      7.17592  eV     1   --> A              
     e( 12 - 12) =      7.69530  eV     1   --> A              
     e( 13 - 13) =      8.90102  eV     1   --> A              
     e( 14 - 14) =      9.72431  eV     1   --> A              
     e( 15 - 15) =     10.00196  eV     1   --> A              
     e( 16 - 16) =     10.68346  eV     1   --> A              
     e( 17 - 17) =     11.08748  eV     1   --> A              
     e( 18 - 18) =     11.37945  eV     1   --> A              
     e( 19 - 19) =     11.85451  eV     1   --> A              
     e( 20 - 20) =     12.40816  eV     1   --> A              

 **************************************************************************

 **************************************************************************

                    xk=(  -0.23529,   0.40754,   0.00000  )

     Band symmetry, C_1 (1)     point group:

     e(  1 -  1) =    -17.02254  eV     1   --> A              
     e(  2 -  2) =    -16.29885  eV     1   --> A              
     e(  3 -  3) =    -10.79073  eV     1   --> A              
     e(  4 -  4) =     -9.46583  eV     1   --> A              
     e(  5 -  5) =     -9.16535  eV     1   --> A              
     e(  6 -  6) =     -7.66691  eV     1   --> A              
     e(  7 -  7) =     -4.17738  eV     1   --> A              
     e(  8 -  8) =     -3.33074  eV     1   --> A              
     e(  9 -  9) =      2.52322  eV     1   --> A              
     e( 10 - 10) =      4.11765  eV     1   --> A              
     e( 11 - 11) =      7.44752  eV     1   --> A              
     e( 12 - 12) =      7.94836  eV     1   --> A              
     e( 13 - 13) =      9.18040  eV     1   --> A              
     e( 14 - 14) =      9.91368  eV     1   --> A              
     e( 15 - 15) =     10.24812  eV     1   --> A              
     e( 16 - 16) =     10.86471  eV     1   --> A              
     e( 17 - 17) =     11.15527  eV     1   --> A              
     e( 18 - 18) =     11.50945  eV     1   --> A              
     e( 19 - 19) =     11.97476  eV     1   --> A              
     e( 20 - 20) =     12.52155  eV     1   --> A              

 **************************************************************************

 **************************************************************************

                    xk=(  -0.24183,   0.41886,   0.00000  )

     Band symmetry, C_1 (1)     point group:

     e(  1 -  1) =    -16.90806  eV     1   --> A              
     e(  2 -  2) =    -16.09836  eV     1   --> A              
     e(  3 -  3) =    -10.98809  eV     1   --> A              
     e(  4 -  4) =     -9.59505  eV     1   --> A              
     e(  5 -  5) =     -9.34899  eV     1   --> A              
     e(  6 -  6) =     -7.81346  eV     1   --> A              
     e(  7 -  7) =     -3.96231  eV     1   --> A              
     e(  8 -  8) =     -3.16230  eV     1   --> A              
     e(  9 -  9) =      2.26490  eV     1   --> A              
     e( 10 - 10) =      3.93901  eV     1   --> A              
     e( 11 - 11) =      7.72507  eV     1   --> A              
     e( 12 - 12) =      8.20504  eV     1   --> A              
     e( 13 - 13) =      9.46080  eV     1   --> A              
     e( 14 - 14) =     10.08075  eV     1   --> A              
     e( 15 - 15) =     10.49671  eV     1   --> A              
     e( 16 - 16) =     11.04522  eV     1   --> A              
     e( 17 - 17) =     11.22419  eV     1   --> A              
     e( 18 - 18) =     11.62574  eV     1   --> A              
     e( 19 - 19) =     12.07794  eV     1   --> A              
     e( 20 - 20) =     12.49441  eV     1   --> A              

 **************************************************************************

 **************************************************************************

                    xk=(  -0.24836,   0.43018,   0.00000  )

     Band symmetry, C_1 (1)     point group:

     e(  1 -  1) =    -16.79735  eV     1   --> A              
     e(  2 -  2) =    -15.89398  eV     1   --> A              
     e(  3 -  3) =    -11.18118  eV     1   --> A              
     e(  4 -  4) =     -9.71328  eV     1   --> A              
     e(  5 -  5) =     -9.52834  eV     1   --> A              
     e(  6 -  6) =     -7.95706  eV     1   --> A              
     e(  7 -  7) =     -3.74627  eV     1   --> A              
     e(  8 -  8) =     -2.99647  eV     1   --> A              
     e(  9 -  9) =      2.01081  eV     1   --> A              
     e( 10 - 10) =      3.76718  eV     1   --> A              
     e( 11 - 11) =      8.00809  eV     1   --> A              
     e( 12 - 12) =      8.46274  eV     1   --> A              
     e( 13 - 13) =      9.73314  eV     1   --> A              
     e( 14 - 14) =     10.22812  eV     1   --> A              
     e( 15 - 15) =     10.73742  eV     1   --> A              
     e( 16 - 16) =     11.21994  eV     1   --> A              
     e( 17 - 17) =     11.30275  eV     1   --> A              
     e( 18 - 18) =     11.72359  eV     1   --> A              
     e( 19 - 19) =     12.16159  eV     1   --> A              
     e( 20 - 20) =     12.47816  eV     1   --> A              

 **************************************************************************

 **************************************************************************

                    xk=(  -0.25490,   0.44150,   0.00000  )

     Band symmetry, C_1 (1)     point group:

     e(  1 -  1) =    -16.69128  eV     1   --> A              
     e(  2 -  2) =    -15.68607  eV     1   --> A              
     e(  3 -  3) =    -11.36990  eV     1   --> A              
     e(  4 -  4) =     -9.82073  eV     1   --> A              
     e(  5 -  5) =     -9.70193  eV     1   --> A              
     e(  6 -  6) =     -8.09743  eV     1   --> A              
     e(  7 -  7) =     -3.53053  eV     1   --> A              
     e(  8 -  8) =     -2.83407  eV     1   --> A              
     e(  9 -  9) =      1.76154  eV     1   --> A              
     e( 10 - 10) =      3.60377  eV     1   --> A              
     e( 11 - 11) =      8.29603  eV     1   --> A              
     e( 12 - 12) =      8.71794  eV     1   --> A              
     e( 13 - 13) =      9.97108  eV     1   --> A              
     e( 14 - 14) =     10.37775  eV     1   --> A              
     e( 15 - 15) =     10.95116  eV     1   --> A              
     e( 16 - 16) =     11.35482  eV     1   --> A              
     e( 17 - 17) =     11.43165  eV     1   --> A              
     e( 18 - 18) =     11.79788  eV     1   --> A              
     e( 19 - 19) =     12.24368  eV     1   --> A              
     e( 20 - 20) =     12.51180  eV     1   --> A              

 **************************************************************************

 **************************************************************************

                    xk=(  -0.26144,   0.45283,   0.00000  )

     Band symmetry, C_1 (1)     point group:

     e(  1 -  1) =    -16.59068  eV     1   --> A              
     e(  2 -  2) =    -15.47494  eV     1   --> A              
     e(  3 -  3) =    -11.55421  eV     1   --> A              
     e(  4 -  4) =     -9.92316  eV     1   --> A              
     e(  5 -  5) =     -9.86272  eV     1   --> A              
     e(  6 -  6) =     -8.23426  eV     1   --> A              
     e(  7 -  7) =     -3.31624  eV     1   --> A              
     e(  8 -  8) =     -2.67526  eV     1   --> A              
     e(  9 -  9) =      1.51710  eV     1   --> A              
     e( 10 - 10) =      3.45018  eV     1   --> A              
     e( 11 - 11) =      8.58814  eV     1   --> A              
     e( 12 - 12) =      8.96560  eV     1   --> A              
     e( 13 - 13) =     10.12483  eV     1   --> A              
     e( 14 - 14) =     10.57925  eV     1   --> A              
     e( 15 - 15) =     11.11112  eV     1   --> A              
     e( 16 - 16) =     11.45176  eV     1   --> A              
     e( 17 - 17) =     11.61171  eV     1   --> A              
     e( 18 - 18) =     11.86528  eV     1   --> A              
     e( 19 - 19) =     12.35854  eV     1   --> A              
     e( 20 - 20) =     12.58421  eV     1   --> A              

 **************************************************************************

 **************************************************************************

                    xk=(  -0.26797,   0.46415,   0.00000  )

     Band symmetry, C_1 (1)     point group:

     e(  1 -  1) =    -16.49645  eV     1   --> A              
     e(  2 -  2) =    -15.26115  eV     1   --> A              
     e(  3 -  3) =    -11.73401  eV     1   --> A              
     e(  4 -  4) =    -10.05607  eV     1   --> A              
     e(  5 -  5) =     -9.97395  eV     1   --> A              
     e(  6 -  6) =     -8.36721  eV     1   --> A              
     e(  7 -  7) =     -3.10559  eV     1   --> A              
     e(  8 -  8) =     -2.52021  eV     1   --> A              
     e(  9 -  9) =      1.27761  eV     1   --> A              
     e( 10 - 10) =      3.30766  eV     1   --> A              
     e( 11 - 11) =      8.88335  eV     1   --> A              
     e( 12 - 12) =      9.19810  eV     1   --> A              
     e( 13 - 13) =     10.18758  eV     1   --> A              
     e( 14 - 14) =     10.84274  eV     1   --> A              
     e( 15 - 15) =     11.20895  eV     1   --> A              
     e( 16 - 16) =     11.53586  eV     1   --> A              
     e( 17 - 17) =     11.78794  eV     1   --> A              
     e( 18 - 18) =     11.98091  eV     1   --> A              
     e( 19 - 19) =     12.51562  eV     1   --> A              
     e( 20 - 20) =     12.67901  eV     1   --> A              

 **************************************************************************

 **************************************************************************

                    xk=(  -0.27451,   0.47547,   0.00000  )

     Band symmetry, C_1 (1)     point group:

     e(  1 -  1) =    -16.40944  eV     1   --> A              
     e(  2 -  2) =    -15.04531  eV     1   --> A              
     e(  3 -  3) =    -11.90920  eV     1   --> A              
     e(  4 -  4) =    -10.21029  eV     1   --> A              
     e(  5 -  5) =    -10.04367  eV     1   --> A              
     e(  6 -  6) =     -8.49591  eV     1   --> A              
     e(  7 -  7) =     -2.90173  eV     1   --> A              
     e(  8 -  8) =     -2.36806  eV     1   --> A              
     e(  9 -  9) =      1.04333  eV     1   --> A              
     e( 10 - 10) =      3.17749  eV     1   --> A              
     e( 11 - 11) =      9.18015  eV     1   --> A              
     e( 12 - 12) =      9.40433  eV     1   --> A              
     e( 13 - 13) =     10.19939  eV     1   --> A              
     e( 14 - 14) =     11.12711  eV     1   --> A              
     e( 15 - 15) =     11.27368  eV     1   --> A              
     e( 16 - 16) =     11.60730  eV     1   --> A              
     e( 17 - 17) =     11.93045  eV     1   --> A              
     e( 18 - 18) =     12.17343  eV     1   --> A              
     e( 19 - 19) =     12.70127  eV     1   --> A              
     e( 20 - 20) =     12.79562  eV     1   --> A              

 **************************************************************************

 **************************************************************************

                    xk=(  -0.28104,   0.48679,   0.00000  )

     Band symmetry, C_1 (1)     point group:

     e(  1 -  1) =    -16.33047  eV     1   --> A              
     e(  2 -  2) =    -14.82823  eV     1   --> A              
     e(  3 -  3) =    -12.07974  eV     1   --> A              
     e(  4 -  4) =    -10.36160  eV     1   --> A              
     e(  5 -  5) =    -10.09479  eV     1   --> A              
     e(  6 -  6) =     -8.61983  eV     1   --> A              
     e(  7 -  7) =     -2.70913  eV     1   --> A              
     e(  8 -  8) =     -2.21661  eV     1   --> A              
     e(  9 -  9) =      0.81448  eV     1   --> A              
     e( 10 - 10) =      3.06078  eV     1   --> A              
     e( 11 - 11) =      9.47525  eV     1   --> A              
     e( 12 - 12) =      9.57096  eV     1   --> A              
     e( 13 - 13) =     10.18864  eV     1   --> A              
     e( 14 - 14) =     11.31270  eV     1   --> A              
     e( 15 - 15) =     11.41186  eV     1   --> A              
     e( 16 - 16) =     11.70624  eV     1   --> A              
     e( 17 - 17) =     12.05396  eV     1   --> A              
     e( 18 - 18) =     12.38990  eV     1   --> A              
     e( 19 - 19) =     12.87964  eV     1   --> A              
     e( 20 - 20) =     12.96509  eV     1   --> A              

 **************************************************************************

 **************************************************************************

                    xk=(  -0.28758,   0.49811,   0.00000  )

     Band symmetry, C_1 (1)     point group:

     e(  1 -  1) =    -16.26024  eV     1   --> A              
     e(  2 -  2) =    -14.61089  eV     1   --> A              
     e(  3 -  3) =    -12.24570  eV     1   --> A              
     e(  4 -  4) =    -10.50616  eV     1   --> A              
     e(  5 -  5) =    -10.13032  eV     1   --> A              
     e(  6 -  6) =     -8.73839  eV     1   --> A              
     e(  7 -  7) =     -2.53375  eV     1   --> A              
     e(  8 -  8) =     -2.06196  eV     1   --> A              
     e(  9 -  9) =      0.59107  eV     1   --> A              
     e( 10 - 10) =      2.95843  eV     1   --> A              
     e( 11 - 11) =      9.67464  eV     1   --> A              
     e( 12 - 12) =      9.77569  eV     1   --> A              
     e( 13 - 13) =     10.17087  eV     1   --> A              
     e( 14 - 14) =     11.40889  eV     1   --> A              
     e( 15 - 15) =     11.55367  eV     1   --> A              
     e( 16 - 16) =     11.92196  eV     1   --> A              
     e( 17 - 17) =     12.16552  eV     1   --> A              
     e( 18 - 18) =     12.58317  eV     1   --> A              
     e( 19 - 19) =     13.04430  eV     1   --> A              
     e( 20 - 20) =     13.19657  eV     1   --> A              

 **************************************************************************

 **************************************************************************

                    xk=(  -0.29411,   0.50943,   0.00000  )

     Band symmetry, C_1 (1)     point group:

     e(  1 -  1) =    -16.19930  eV     1   --> A              
     e(  2 -  2) =    -14.39463  eV     1   --> A              
     e(  3 -  3) =    -12.40693  eV     1   --> A              
     e(  4 -  4) =    -10.64193  eV     1   --> A              
     e(  5 -  5) =    -10.15108  eV     1   --> A              
     e(  6 -  6) =     -8.85067  eV     1   --> A              
     e(  7 -  7) =     -2.38230  eV     1   --> A              
     e(  8 -  8) =     -1.89962  eV     1   --> A              
     e(  9 -  9) =      0.37327  eV     1   --> A              
     e( 10 - 10) =      2.87112  eV     1   --> A              
     e( 11 - 11) =      9.72992  eV     1   --> A              
     e( 12 - 12) =     10.05992  eV     1   --> A              
     e( 13 - 13) =     10.15278  eV     1   --> A              
     e( 14 - 14) =     11.53980  eV     1   --> A              
     e( 15 - 15) =     11.61686  eV     1   --> A              
     e( 16 - 16) =     12.20543  eV     1   --> A              
     e( 17 - 17) =     12.28132  eV     1   --> A              
     e( 18 - 18) =     12.73539  eV     1   --> A              
     e( 19 - 19) =     13.21994  eV     1   --> A              
     e( 20 - 20) =     13.45551  eV     1   --> A              

 **************************************************************************

 **************************************************************************

                    xk=(  -0.30065,   0.52075,   0.00000  )

     Band symmetry, C_1 (1)     point group:

     e(  1 -  1) =    -16.14802  eV     1   --> A              
     e(  2 -  2) =    -14.18118  eV     1   --> A              
     e(  3 -  3) =    -12.56340  eV     1   --> A              
     e(  4 -  4) =    -10.76709  eV     1   --> A              
     e(  5 -  5) =    -10.15819  eV     1   --> A              
     e(  6 -  6) =     -8.95542  eV     1   --> A              
     e(  7 -  7) =     -2.25912  eV     1   --> A              
     e(  8 -  8) =     -1.72710  eV     1   --> A              
     e(  9 -  9) =      0.16145  eV     1   --> A              
     e( 10 - 10) =      2.79928  eV     1   --> A              
     e( 11 - 11) =      9.73986  eV     1   --> A              
     e( 12 - 12) =     10.13184  eV     1   --> A              
     e( 13 - 13) =     10.33340  eV     1   --> A              
     e( 14 - 14) =     11.63121  eV     1   --> A              
     e( 15 - 15) =     11.73722  eV     1   --> A              
     e( 16 - 16) =     12.31646  eV     1   --> A              
     e( 17 - 17) =     12.56774  eV     1   --> A              
     e( 18 - 18) =     12.85646  eV     1   --> A              
     e( 19 - 19) =     13.38578  eV     1   --> A              
     e( 20 - 20) =     13.73024  eV     1   --> A              

 **************************************************************************

 **************************************************************************

                    xk=(  -0.30719,   0.53207,   0.00000  )

     Band symmetry, C_1 (1)     point group:

     e(  1 -  1) =    -16.10663  eV     1   --> A              
     e(  2 -  2) =    -13.97296  eV     1   --> A              
     e(  3 -  3) =    -12.71508  eV     1   --> A              
     e(  4 -  4) =    -10.87920  eV     1   --> A              
     e(  5 -  5) =    -10.15342  eV     1   --> A              
     e(  6 -  6) =     -9.05078  eV     1   --> A              
     e(  7 -  7) =     -2.16453  eV     1   --> A              
     e(  8 -  8) =     -1.54582  eV     1   --> A              
     e(  9 -  9) =     -0.04442  eV     1   --> A              
     e( 10 - 10) =      2.74283  eV     1   --> A              
     e( 11 - 11) =      9.72547  eV     1   --> A              
     e( 12 - 12) =     10.10902  eV     1   --> A              
     e( 13 - 13) =     10.58180  eV     1   --> A              
     e( 14 - 14) =     11.66354  eV     1   --> A              
     e( 15 - 15) =     11.93799  eV     1   --> A              
     e( 16 - 16) =     12.36585  eV     1   --> A              
     e( 17 - 17) =     12.85544  eV     1   --> A              
     e( 18 - 18) =     12.99294  eV     1   --> A              
     e( 19 - 19) =     13.51364  eV     1   --> A              
     e( 20 - 20) =     14.00384  eV     1   --> A              

 **************************************************************************

 **************************************************************************

                    xk=(  -0.31372,   0.54339,   0.00000  )

     Band symmetry, C_1 (1)     point group:

     e(  1 -  1) =    -16.07510  eV     1   --> A              
     e(  2 -  2) =    -13.77317  eV     1   --> A              
     e(  3 -  3) =    -12.86192  eV     1   --> A              
     e(  4 -  4) =    -10.97520  eV     1   --> A              
     e(  5 -  5) =    -10.13972  eV     1   --> A              
     e(  6 -  6) =     -9.13399  eV     1   --> A              
     e(  7 -  7) =     -2.09606  eV     1   --> A              
     e(  8 -  8) =     -1.35955  eV     1   --> A              
     e(  9 -  9) =     -0.24429  eV     1   --> A              
     e( 10 - 10) =      2.70119  eV     1   --> A              
     e( 11 - 11) =      9.70226  eV     1   --> A              
[...]
     e(  8 -  8) =     -5.12441  eV     1   --> A'             
     e(  9 -  9) =      4.84085  eV     1   --> A'             
     e( 10 - 10) =      5.03682  eV     1   --> A'             
     e( 11 - 11) =      5.41842  eV     1   --> A'             
     e( 12 - 12) =      6.26608  eV     1   --> A'             
     e( 13 - 13) =      6.55056  eV     1   --> A'             
     e( 14 - 14) =      6.97907  eV     1   --> A'             
     e( 15 - 15) =      7.52853  eV     1   --> A'             
     e( 16 - 16) =      8.01514  eV     1   --> A'             
     e( 17 - 17) =      9.07152  eV     1   --> A'             
     e( 18 - 18) =     10.00768  eV     1   --> A'             
     e( 19 - 19) =     10.58325  eV     1   --> A'             
     e( 20 - 20) =     12.87685  eV     1   --> A'             

 **************************************************************************

 **************************************************************************

                    xk=(   0.00000,   0.30242,   0.00000  )

     Band symmetry, C_s (m)     point group:

     e(  1 -  1) =    -18.56900  eV     1   --> A'             
     e(  2 -  2) =    -18.41913  eV     1   --> A'             
     e(  3 -  3) =     -8.45420  eV     1   --> A'             
     e(  4 -  4) =     -7.44883  eV     1   --> A'             
     e(  5 -  5) =     -6.61908  eV     1   --> A'             
     e(  6 -  6) =     -5.88870  eV     1   --> A''            
     e(  7 -  7) =     -5.43031  eV     1   --> A'             
     e(  8 -  8) =     -5.14116  eV     1   --> A''            
     e(  9 -  9) =      4.45197  eV     1   --> A'             
     e( 10 - 10) =      4.81652  eV     1   --> A'             
     e( 11 - 11) =      5.94884  eV     1   --> A'             
     e( 12 - 12) =      6.07778  eV     1   --> A'             
     e( 13 - 13) =      6.52578  eV     1   --> A'             
     e( 14 - 14) =      7.09353  eV     1   --> A'             
     e( 15 - 15) =      7.16122  eV     1   --> A'             
     e( 16 - 16) =      7.80872  eV     1   --> A'             
     e( 17 - 17) =      8.99753  eV     1   --> A'             
     e( 18 - 18) =      9.77022  eV     1   --> A'             
     e( 19 - 19) =     10.22263  eV     1   --> A'             
     e( 20 - 20) =     12.56870  eV     1   --> A'             

 **************************************************************************

 **************************************************************************

                    xk=(   0.00000,   0.27493,   0.00000  )

     Band symmetry, C_s (m)     point group:

     e(  1 -  1) =    -18.80829  eV     1   --> A'             
     e(  2 -  2) =    -18.66235  eV     1   --> A'             
     e(  3 -  3) =     -7.83694  eV     1   --> A'             
     e(  4 -  4) =     -7.01274  eV     1   --> A'             
     e(  5 -  5) =     -6.84049  eV     1   --> A'             
     e(  6 -  6) =     -5.71658  eV     1   --> A'             
     e(  7 -  7) =     -5.65602  eV     1   --> A''            
     e(  8 -  8) =     -4.93550  eV     1   --> A''            
     e(  9 -  9) =      4.09043  eV     1   --> A'             
     e( 10 - 10) =      4.49510  eV     1   --> A'             
     e( 11 - 11) =      5.70228  eV     1   --> A'             
     e( 12 - 12) =      6.49190  eV     1   --> A'             
     e( 13 - 13) =      6.58810  eV     1   --> A'             
     e( 14 - 14) =      6.84628  eV     1   --> A'             
     e( 15 - 15) =      7.20928  eV     1   --> A'             
     e( 16 - 16) =      7.74543  eV     1   --> A'             
     e( 17 - 17) =      8.92084  eV     1   --> A'             
     e( 18 - 18) =      9.62248  eV     1   --> A'             
     e( 19 - 19) =      9.93144  eV     1   --> A'             
     e( 20 - 20) =     12.29241  eV     1   --> A'             

 **************************************************************************

 **************************************************************************

                    xk=(   0.00000,   0.24744,   0.00000  )

     Band symmetry, C_s (m)     point group:

     e(  1 -  1) =    -19.03705  eV     1   --> A'             
     e(  2 -  2) =    -18.87569  eV     1   --> A'             
     e(  3 -  3) =     -7.24357  eV     1   --> A'             
     e(  4 -  4) =     -7.22798  eV     1   --> A'             
     e(  5 -  5) =     -6.37551  eV     1   --> A'             
     e(  6 -  6) =     -5.97879  eV     1   --> A'             
     e(  7 -  7) =     -5.41311  eV     1   --> A''            
     e(  8 -  8) =     -4.72254  eV     1   --> A''            
     e(  9 -  9) =      3.76020  eV     1   --> A'             
     e( 10 - 10) =      4.18229  eV     1   --> A'             
     e( 11 - 11) =      5.36363  eV     1   --> A'             
     e( 12 - 12) =      6.37747  eV     1   --> A'             
     e( 13 - 13) =      6.48821  eV     1   --> A'             
     e( 14 - 14) =      7.21238  eV     1   --> A'             
     e( 15 - 15) =      7.29487  eV     1   --> A'             
     e( 16 - 16) =      7.76679  eV     1   --> A'             
     e( 17 - 17) =      8.82984  eV     1   --> A'             
     e( 18 - 18) =      9.54100  eV     1   --> A'             
     e( 19 - 19) =      9.76163  eV     1   --> A'             
     e( 20 - 20) =     12.05721  eV     1   --> A'             

 **************************************************************************

 **************************************************************************

                    xk=(   0.00000,   0.21994,   0.00000  )

     Band symmetry, C_s (m)     point group:

     e(  1 -  1) =    -19.24848  eV     1   --> A'             
     e(  2 -  2) =    -19.06385  eV     1   --> A'             
     e(  3 -  3) =     -7.49911  eV     1   --> A'             
     e(  4 -  4) =     -6.63996  eV     1   --> A'             
     e(  5 -  5) =     -6.22789  eV     1   --> A'             
     e(  6 -  6) =     -5.85456  eV     1   --> A'             
     e(  7 -  7) =     -5.16440  eV     1   --> A''            
     e(  8 -  8) =     -4.50652  eV     1   --> A''            
     e(  9 -  9) =      3.46251  eV     1   --> A'             
     e( 10 - 10) =      3.89425  eV     1   --> A'             
     e( 11 - 11) =      5.05770  eV     1   --> A'             
     e( 12 - 12) =      6.11415  eV     1   --> A'             
     e( 13 - 13) =      6.27512  eV     1   --> A'             
     e( 14 - 14) =      7.36982  eV     1   --> A'             
     e( 15 - 15) =      7.70375  eV     1   --> A'             
     e( 16 - 16) =      7.81737  eV     1   --> A'             
     e( 17 - 17) =      8.71125  eV     1   --> A'             
     e( 18 - 18) =      9.48780  eV     1   --> A'             
     e( 19 - 19) =      9.75508  eV     1   --> A'             
     e( 20 - 20) =     12.56995  eV     1   --> A''            

 **************************************************************************

 **************************************************************************

                    xk=(   0.00000,   0.19245,   0.00000  )

     Band symmetry, C_s (m)     point group:

     e(  1 -  1) =    -19.43848  eV     1   --> A'             
     e(  2 -  2) =    -19.22941  eV     1   --> A'             
     e(  3 -  3) =     -7.73005  eV     1   --> A'             
     e(  4 -  4) =     -6.44048  eV     1   --> A'             
     e(  5 -  5) =     -6.07586  eV     1   --> A'             
     e(  6 -  6) =     -5.36308  eV     1   --> A'             
     e(  7 -  7) =     -4.91539  eV     1   --> A''            
     e(  8 -  8) =     -4.29250  eV     1   --> A''            
     e(  9 -  9) =      3.19802  eV     1   --> A'             
     e( 10 - 10) =      3.63610  eV     1   --> A'             
     e( 11 - 11) =      4.78651  eV     1   --> A'             
     e( 12 - 12) =      5.85630  eV     1   --> A'             
     e( 13 - 13) =      6.06644  eV     1   --> A'             
     e( 14 - 14) =      7.42974  eV     1   --> A'             
     e( 15 - 15) =      7.65704  eV     1   --> A'             
     e( 16 - 16) =      8.30732  eV     1   --> A'             
     e( 17 - 17) =      8.56302  eV     1   --> A'             
     e( 18 - 18) =      9.48691  eV     1   --> A'             
     e( 19 - 19) =      9.83306  eV     1   --> A'             
     e( 20 - 20) =      9.93564  eV     1   --> A''            

 **************************************************************************

 **************************************************************************

                    xk=(   0.00000,   0.16496,   0.00000  )

     Band symmetry, C_s (m)     point group:

     e(  1 -  1) =    -19.60488  eV     1   --> A'             
     e(  2 -  2) =    -19.37318  eV     1   --> A'             
     e(  3 -  3) =     -7.93184  eV     1   --> A'             
     e(  4 -  4) =     -6.62835  eV     1   --> A'             
     e(  5 -  5) =     -5.54693  eV     1   --> A'             
     e(  6 -  6) =     -4.89891  eV     1   --> A'             
     e(  7 -  7) =     -4.67236  eV     1   --> A''            
     e(  8 -  8) =     -4.08610  eV     1   --> A''            
     e(  9 -  9) =      2.96719  eV     1   --> A'             
     e( 10 - 10) =      3.41014  eV     1   --> A'             
     e( 11 - 11) =      4.55072  eV     1   --> A'             
     e( 12 - 12) =      5.62747  eV     1   --> A'             
     e( 13 - 13) =      5.87107  eV     1   --> A'             
     e( 14 - 14) =      7.44894  eV     1   --> A'             
     e( 15 - 15) =      7.56945  eV     1   --> A'             
     e( 16 - 16) =      8.37147  eV     1   --> A'             
     e( 17 - 17) =      8.81079  eV     1   --> A'             
     e( 18 - 18) =      9.33641  eV     1   --> A''            
     e( 19 - 19) =      9.52406  eV     1   --> A'             
     e( 20 - 20) =      9.91597  eV     1   --> A'             

 **************************************************************************

 **************************************************************************

                    xk=(   0.00000,   0.13746,   0.00000  )

     Band symmetry, C_s (m)     point group:

     e(  1 -  1) =    -19.74666  eV     1   --> A'             
     e(  2 -  2) =    -19.49530  eV     1   --> A'             
     e(  3 -  3) =     -8.10354  eV     1   --> A'             
     e(  4 -  4) =     -6.78891  eV     1   --> A'             
     e(  5 -  5) =     -5.06563  eV     1   --> A'             
     e(  6 -  6) =     -4.47594  eV     1   --> A'             
     e(  7 -  7) =     -4.44322  eV     1   --> A''            
     e(  8 -  8) =     -3.89390  eV     1   --> A''            
     e(  9 -  9) =      2.77040  eV     1   --> A'             
     e( 10 - 10) =      3.21756  eV     1   --> A'             
     e( 11 - 11) =      4.35066  eV     1   --> A'             
     e( 12 - 12) =      5.43175  eV     1   --> A'             
     e( 13 - 13) =      5.69755  eV     1   --> A'             
     e( 14 - 14) =      7.37562  eV     1   --> A'             
     e( 15 - 15) =      7.54535  eV     1   --> A'             
     e( 16 - 16) =      8.21149  eV     1   --> A'             
     e( 17 - 17) =      8.80247  eV     1   --> A''            
     e( 18 - 18) =      9.23386  eV     1   --> A'             
     e( 19 - 19) =      9.57844  eV     1   --> A'             
     e( 20 - 20) =      9.96522  eV     1   --> A'             

 **************************************************************************

 **************************************************************************

                    xk=(   0.00000,   0.10997,   0.00000  )

     Band symmetry, C_s (m)     point group:

     e(  1 -  1) =    -19.86317  eV     1   --> A'             
     e(  2 -  2) =    -19.59561  eV     1   --> A'             
     e(  3 -  3) =     -8.24461  eV     1   --> A'             
     e(  4 -  4) =     -6.92116  eV     1   --> A'             
     e(  5 -  5) =     -4.64369  eV     1   --> A'             
     e(  6 -  6) =     -4.23655  eV     1   --> A''            
     e(  7 -  7) =     -4.10562  eV     1   --> A'             
     e(  8 -  8) =     -3.72281  eV     1   --> A''            
     e(  9 -  9) =      2.60808  eV     1   --> A'             
     e( 10 - 10) =      3.05910  eV     1   --> A'             
     e( 11 - 11) =      4.18657  eV     1   --> A'             
     e( 12 - 12) =      5.27050  eV     1   --> A'             
     e( 13 - 13) =      5.55087  eV     1   --> A'             
     e( 14 - 14) =      7.27179  eV     1   --> A'             
     e( 15 - 15) =      7.53965  eV     1   --> A'             
     e( 16 - 16) =      8.06932  eV     1   --> A'             
     e( 17 - 17) =      8.34433  eV     1   --> A''            
     e( 18 - 18) =      9.55489  eV     1   --> A'             
     e( 19 - 19) =      9.67594  eV     1   --> A'             
     e( 20 - 20) =      9.97716  eV     1   --> A'             

 **************************************************************************

 **************************************************************************

                    xk=(   0.00000,   0.08248,   0.00000  )

     Band symmetry, C_s (m)     point group:

     e(  1 -  1) =    -19.95408  eV     1   --> A'             
     e(  2 -  2) =    -19.67391  eV     1   --> A'             
     e(  3 -  3) =     -8.35472  eV     1   --> A'             
     e(  4 -  4) =     -7.02453  eV     1   --> A'             
     e(  5 -  5) =     -4.29528  eV     1   --> A'             
     e(  6 -  6) =     -4.06200  eV     1   --> A''            
     e(  7 -  7) =     -3.80043  eV     1   --> A'             
     e(  8 -  8) =     -3.58008  eV     1   --> A''            
     e(  9 -  9) =      2.48076  eV     1   --> A'             
     e( 10 - 10) =      2.93528  eV     1   --> A'             
     e( 11 - 11) =      4.05866  eV     1   --> A'             
     e( 12 - 12) =      5.14443  eV     1   --> A'             
     e( 13 - 13) =      5.43404  eV     1   --> A'             
     e( 14 - 14) =      7.18038  eV     1   --> A'             
     e( 15 - 15) =      7.52287  eV     1   --> A'             
     e( 16 - 16) =      7.95349  eV     1   --> A'             
     e( 17 - 17) =      7.97264  eV     1   --> A''            
     e( 18 - 18) =      9.64851  eV     1   --> A'             
     e( 19 - 19) =      9.91536  eV     1   --> A'             
     e( 20 - 20) =      9.97391  eV     1   --> A'             

 **************************************************************************

 **************************************************************************

                    xk=(   0.00000,   0.05499,   0.00000  )

     Band symmetry, C_s (m)     point group:

     e(  1 -  1) =    -20.01914  eV     1   --> A'             
     e(  2 -  2) =    -19.72997  eV     1   --> A'             
     e(  3 -  3) =     -8.43349  eV     1   --> A'             
     e(  4 -  4) =     -7.09864  eV     1   --> A'             
     e(  5 -  5) =     -4.03396  eV     1   --> A'             
     e(  6 -  6) =     -3.92868  eV     1   --> A''            
     e(  7 -  7) =     -3.57202  eV     1   --> A'             
     e(  8 -  8) =     -3.47227  eV     1   --> A''            
     e(  9 -  9) =      2.38909  eV     1   --> A'             
     e( 10 - 10) =      2.84653  eV     1   --> A'             
     e( 11 - 11) =      3.96711  eV     1   --> A'             
     e( 12 - 12) =      5.05401  eV     1   --> A'             
     e( 13 - 13) =      5.34917  eV     1   --> A'             
     e( 14 - 14) =      7.11143  eV     1   --> A'             
     e( 15 - 15) =      7.49965  eV     1   --> A'             
     e( 16 - 16) =      7.69810  eV     1   --> A''            
     e( 17 - 17) =      7.86798  eV     1   --> A'             
     e( 18 - 18) =      9.69089  eV     1   --> A'             
     e( 19 - 19) =      9.92387  eV     1   --> A''            
     e( 20 - 20) =      9.94082  eV     1   --> A'             

 **************************************************************************

 **************************************************************************

                    xk=(   0.00000,   0.02749,   0.00000  )

     Band symmetry, C_s (m)     point group:

     e(  1 -  1) =    -20.05823  eV     1   --> A'             
     e(  2 -  2) =    -19.76367  eV     1   --> A'             
     e(  3 -  3) =     -8.48081  eV     1   --> A'             
     e(  4 -  4) =     -7.14319  eV     1   --> A'             
     e(  5 -  5) =     -3.87152  eV     1   --> A'             
     e(  6 -  6) =     -3.84496  eV     1   --> A''            
     e(  7 -  7) =     -3.43032  eV     1   --> A'             
     e(  8 -  8) =     -3.40511  eV     1   --> A''            
     e(  9 -  9) =      2.33372  eV     1   --> A'             
     e( 10 - 10) =      2.79313  eV     1   --> A'             
     e( 11 - 11) =      3.91209  eV     1   --> A'             
     e( 12 - 12) =      4.99959  eV     1   --> A'             
     e( 13 - 13) =      5.29764  eV     1   --> A'             
     e( 14 - 14) =      7.06882  eV     1   --> A'             
     e( 15 - 15) =      7.47997  eV     1   --> A'             
     e( 16 - 16) =      7.52940  eV     1   --> A''            
     e( 17 - 17) =      7.81546  eV     1   --> A'             
     e( 18 - 18) =      9.71484  eV     1   --> A'             
     e( 19 - 19) =      9.77366  eV     1   --> A''            
     e( 20 - 20) =      9.92488  eV     1   --> A'             

 **************************************************************************

 **************************************************************************

                    xk=(   0.00000,   0.00000,   0.00000  )

     point group C_3v (3m)  
     there are  3 classes
     the character table:

       E     2C3   3s_v 
A_1    1.00  1.00  1.00
A_2    1.00  1.00 -1.00
E      2.00 -1.00  0.00

     the symmetry operations in each class and the name of the first element:

     E        1
                                                                 
     2C3      2    3
                                                                 
     3s_v     4    5    6
                                                                 

     Band symmetry, C_3v (3m)   point group:

     e(  1 -  1) =    -20.07126  eV     1   --> A_1  L_1       
     e(  2 -  2) =    -19.77491  eV     1   --> A_1  L_1       
     e(  3 -  3) =     -8.49655  eV     1   --> A_1  L_1       
     e(  4 -  4) =     -7.15807  eV     1   --> A_1  L_1       
     e(  5 -  6) =     -3.81650  eV     2   --> E    L_3       
     e(  7 -  8) =     -3.38234  eV     2   --> E    L_3       
     e(  9 -  9) =      2.31520  eV     1   --> A_1  L_1       
     e( 10 - 10) =      2.77531  eV     1   --> A_1  L_1       
     e( 11 - 11) =      3.89374  eV     1   --> A_1  L_1       
     e( 12 - 12) =      4.98142  eV     1   --> A_1  L_1       
     e( 13 - 13) =      5.28038  eV     1   --> A_1  L_1       
     e( 14 - 14) =      7.05447  eV     1   --> A_1  L_1       
     e( 15 - 16) =      7.47239  eV     2   --> E    L_3       
     e( 17 - 17) =      7.79768  eV     1   --> A_1  L_1       
     e( 18 - 19) =      9.72306  eV     2   --> E    L_3       
     e( 20 - 20) =      9.91892  eV     1   --> A_1  L_1       

 **************************************************************************

     BANDS        :     12.03s CPU     12.45s WALL


   This run was terminated on:  20:19:53  18Apr2024            

=------------------------------------------------------------------------------=
   JOB DONE.
=------------------------------------------------------------------------------=
