
     Program PWSCF v.7.2 starts on 18Apr2024 at 20:18:36 

     This program is part of the open-source Quantum ESPRESSO suite
     for quantum simulation of materials; please cite
         "P. Giannozzi et al., J. Phys.:Condens. Matter 21 395502 (2009);
         "P. Giannozzi et al., J. Phys.:Condens. Matter 29 465901 (2017);
         "P. Giannozzi et al., J. Chem. Phys. 152 154105 (2020);
          URL http://www.quantum-espresso.org", 
     in publications or presentations arising from this work. More details at
     http://www.quantum-espresso.org/quote

     Parallel version (MPI & OpenMP), running on       8 processor cores
     Number of MPI processes:                 8
     Threads/MPI process:                     1

     MPI processes distributed on     1 nodes
     0 MiB available memory on the printing compute node when the environment starts

     Waiting for input...
     Reading input from standard input
Warning: card &CELL ignored
Warning: card CELL_DOFREE = 'ALL' ignored
Warning: card / ignored

     Current dimensions of program PWSCF are:
     Max number of different atomic species (ntypx) = 10
     Max number of k-points (npk) =  40000
     Max angular momentum in pseudopotentials (lmaxx) =  4

     IMPORTANT: XC functional enforced from input :
     Exchange-correlation= VDW-DF2-B86R
                           (   1   4  26   0   2   0   0)
     Any further DFT definition will be discarded
     Please, verify this is what you really want


     R & G space division:  proc/nbgrp/npool/nimage =       8
     Subspace diagonalization in iterative solution of the eigenvalue problem:
     a serial algorithm will be used


     Parallelization info
     --------------------
     sticks:   dense  smooth     PW     G-vecs:    dense   smooth      PW
     Min          53      53     15                 7137     7137    1187
     Max          55      55     18                 7150     7150    1218
     Sum         433     433    127                57141    57141    9537

     Using Slab Decomposition



     bravais-lattice index     =            4
     lattice parameter (alat)  =       4.7049  a.u.
     unit-cell volume          =     721.5520 (a.u.)^3
     number of atoms/cell      =            4
     number of atomic types    =            3
     number of electrons       =        16.00
     number of Kohn-Sham states=           20
     kinetic-energy cutoff     =      70.0000  Ry
     charge density cutoff     =     280.0000  Ry
     scf convergence threshold =      1.0E-06
     mixing beta               =       0.7000
     number of iterations used =            8  plain     mixing
     Exchange-correlation= VDW-DF2-B86R
                           (   1   4  26   0   2   0   0)

     celldm(1)=   4.704885  celldm(2)=   0.000000  celldm(3)=   8.000000
     celldm(4)=   0.000000  celldm(5)=   0.000000  celldm(6)=   0.000000

     crystal axes: (cart. coord. in units of alat)
               a(1) = (   1.000000   0.000000   0.000000 )  
               a(2) = (  -0.500000   0.866025   0.000000 )  
               a(3) = (   0.000000   0.000000   8.000000 )  

     reciprocal axes: (cart. coord. in units 2 pi/alat)
               b(1) = (  1.000000  0.577350 -0.000000 )  
               b(2) = (  0.000000  1.154701  0.000000 )  
               b(3) = (  0.000000 -0.000000  0.125000 )  


     PseudoPot. # 1 for C  read from file:
     ../../../Pseudo/PBE/C.upf
     MD5 check sum: 34a24e64c0a39f27c6c36b90a16ac686
     Pseudo is Norm-conserving + core correction, Zval =  4.0
     Generated using ONCVPSP code by D. R. Hamann
     Using radial grid of 1248 points,  4 beta functions with: 
                l(1) =   0
                l(2) =   0
                l(3) =   1
                l(4) =   1

     PseudoPot. # 2 for B  read from file:
     ../../../Pseudo/PBE/B.upf
     MD5 check sum: 72f82fc31bc892420d0cab7e25c88ab8
     Pseudo is Norm-conserving + core correction, Zval =  3.0
     Generated using ONCVPSP code by D. R. Hamann
     Using radial grid of 1534 points,  4 beta functions with: 
                l(1) =   0
                l(2) =   0
                l(3) =   1
                l(4) =   1

     PseudoPot. # 3 for N  read from file:
     ../../../Pseudo/PBE/N.upf
     MD5 check sum: d34365f73bb0e2ee98afc20ec3e87676
     Pseudo is Norm-conserving + core correction, Zval =  5.0
     Generated using ONCVPSP code by D. R. Hamann
     Using radial grid of 1058 points,  4 beta functions with: 
                l(1) =   0
                l(2) =   0
                l(3) =   1
                l(4) =   1

     atomic species   valence    mass     pseudopotential
        C              4.00    12.01100     C ( 1.00)
        B              3.00    10.00000     B ( 1.00)
        N              5.00    14.00000     N ( 1.00)

      6 Sym. Ops. (no inversion) found


                                    s                        frac. trans.

      isym =  1     identity                                     

 cryst.   s( 1) = (     1          0          0      )
                  (     0          1          0      )
                  (     0          0          1      )

 cart.    s( 1) = (  1.0000000  0.0000000  0.0000000 )
                  (  0.0000000  1.0000000  0.0000000 )
                  (  0.0000000  0.0000000  1.0000000 )


      isym =  2     120 deg rotation - cryst. axis [0,0,1]       

 cryst.   s( 2) = (     0          1          0      )
                  (    -1         -1          0      )
                  (     0          0          1      )

 cart.    s( 2) = ( -0.5000000 -0.8660254  0.0000000 )
                  (  0.8660254 -0.5000000  0.0000000 )
                  (  0.0000000  0.0000000  1.0000000 )


      isym =  3     120 deg rotation - cryst. axis [0,0,-1]      

 cryst.   s( 3) = (    -1         -1          0      )
                  (     1          0          0      )
                  (     0          0          1      )

 cart.    s( 3) = ( -0.5000000  0.8660254  0.0000000 )
                  ( -0.8660254 -0.5000000  0.0000000 )
                  (  0.0000000  0.0000000  1.0000000 )


      isym =  4     inv. 180 deg rotation - cart. axis [1,0,0]   

 cryst.   s( 4) = (    -1          0          0      )
                  (     1          1          0      )
                  (     0          0          1      )

 cart.    s( 4) = ( -1.0000000  0.0000000  0.0000000 )
                  (  0.0000000  1.0000000  0.0000000 )
                  (  0.0000000  0.0000000  1.0000000 )


      isym =  5     inv. 180 deg rotation - cryst. axis [0,1,0]  

 cryst.   s( 5) = (     1          1          0      )
                  (     0         -1          0      )
                  (     0          0          1      )

 cart.    s( 5) = (  0.5000000  0.8660254  0.0000000 )
                  (  0.8660254 -0.5000000  0.0000000 )
                  (  0.0000000  0.0000000  1.0000000 )


      isym =  6     inv. 180 deg rotation - cryst. axis [1,1,0]  

 cryst.   s( 6) = (     0         -1          0      )
                  (    -1          0          0      )
                  (     0          0          1      )

 cart.    s( 6) = (  0.5000000 -0.8660254  0.0000000 )
                  ( -0.8660254 -0.5000000  0.0000000 )
                  (  0.0000000  0.0000000  1.0000000 )


     point group C_3v (3m)  
     there are  3 classes
     the character table:

       E     2C3   3s_v 
A_1    1.00  1.00  1.00
A_2    1.00  1.00 -1.00
E      2.00 -1.00  0.00

     the symmetry operations in each class and the name of the first element:

     E        1
          identity                                               
     2C3      2    3
          120 deg rotation - cryst. axis [0,0,1]                 
     3s_v     4    5    6
          inv. 180 deg rotation - cart. axis [1,0,0]             

   Cartesian axes

     site n.     atom                  positions (alat units)
         1           C   tau(   1) = (   0.0000000   0.0000000   0.0000000  )
         2           B   tau(   2) = (   0.0000000   0.0000000   1.3303760  )
         3           C   tau(   3) = (   0.5000005   0.2886748   0.0000000  )
         4           N   tau(   4) = (  -0.0000005   0.5773506   1.3303760  )

   Crystallographic axes

     site n.     atom                  positions (cryst. coord.)
         1           C   tau(   1) = (  0.0000000  0.0000000  0.0000000  )
         2           B   tau(   2) = (  0.0000000  0.0000000  0.1662970  )
         3           C   tau(   3) = (  0.6666670  0.3333330  0.0000000  )
         4           N   tau(   4) = (  0.3333330  0.6666670  0.1662970  )

     number of k points=   114  Marzari-Vanderbilt smearing, width (Ry)=  0.0010
                       cart. coord. in units 2pi/alat
        k(    1) = (   0.0000000   0.0000000   0.0000000), wk =   0.0175439
        k(    2) = (  -0.0065359   0.0113206   0.0000000), wk =   0.0175439
        k(    3) = (  -0.0130718   0.0226413   0.0000000), wk =   0.0175439
        k(    4) = (  -0.0196076   0.0339619   0.0000000), wk =   0.0175439
        k(    5) = (  -0.0261435   0.0452826   0.0000000), wk =   0.0175439
        k(    6) = (  -0.0326794   0.0566032   0.0000000), wk =   0.0175439
        k(    7) = (  -0.0392153   0.0679238   0.0000000), wk =   0.0175439
        k(    8) = (  -0.0457512   0.0792445   0.0000000), wk =   0.0175439
        k(    9) = (  -0.0522871   0.0905651   0.0000000), wk =   0.0175439
        k(   10) = (  -0.0588229   0.1018857   0.0000000), wk =   0.0175439
        k(   11) = (  -0.0653588   0.1132064   0.0000000), wk =   0.0175439
        k(   12) = (  -0.0718947   0.1245270   0.0000000), wk =   0.0175439
        k(   13) = (  -0.0784306   0.1358477   0.0000000), wk =   0.0175439
        k(   14) = (  -0.0849665   0.1471683   0.0000000), wk =   0.0175439
        k(   15) = (  -0.0915024   0.1584889   0.0000000), wk =   0.0175439
        k(   16) = (  -0.0980382   0.1698096   0.0000000), wk =   0.0175439
        k(   17) = (  -0.1045741   0.1811302   0.0000000), wk =   0.0175439
        k(   18) = (  -0.1111100   0.1924509   0.0000000), wk =   0.0175439
        k(   19) = (  -0.1176459   0.2037715   0.0000000), wk =   0.0175439
        k(   20) = (  -0.1241818   0.2150921   0.0000000), wk =   0.0175439
        k(   21) = (  -0.1307176   0.2264128   0.0000000), wk =   0.0175439
        k(   22) = (  -0.1372535   0.2377334   0.0000000), wk =   0.0175439
        k(   23) = (  -0.1437894   0.2490541   0.0000000), wk =   0.0175439
        k(   24) = (  -0.1503253   0.2603747   0.0000000), wk =   0.0175439
        k(   25) = (  -0.1568612   0.2716953   0.0000000), wk =   0.0175439
        k(   26) = (  -0.1633971   0.2830160   0.0000000), wk =   0.0175439
        k(   27) = (  -0.1699329   0.2943366   0.0000000), wk =   0.0175439
        k(   28) = (  -0.1764688   0.3056572   0.0000000), wk =   0.0175439
        k(   29) = (  -0.1830047   0.3169779   0.0000000), wk =   0.0175439
        k(   30) = (  -0.1895406   0.3282985   0.0000000), wk =   0.0175439
        k(   31) = (  -0.1960765   0.3396192   0.0000000), wk =   0.0175439
        k(   32) = (  -0.2026124   0.3509398   0.0000000), wk =   0.0175439
        k(   33) = (  -0.2091482   0.3622604   0.0000000), wk =   0.0175439
        k(   34) = (  -0.2156841   0.3735811   0.0000000), wk =   0.0175439
        k(   35) = (  -0.2222200   0.3849017   0.0000000), wk =   0.0175439
        k(   36) = (  -0.2287559   0.3962224   0.0000000), wk =   0.0175439
        k(   37) = (  -0.2352918   0.4075430   0.0000000), wk =   0.0175439
        k(   38) = (  -0.2418276   0.4188636   0.0000000), wk =   0.0175439
        k(   39) = (  -0.2483635   0.4301843   0.0000000), wk =   0.0175439
        k(   40) = (  -0.2548994   0.4415049   0.0000000), wk =   0.0175439
        k(   41) = (  -0.2614353   0.4528256   0.0000000), wk =   0.0175439
        k(   42) = (  -0.2679712   0.4641462   0.0000000), wk =   0.0175439
        k(   43) = (  -0.2745071   0.4754668   0.0000000), wk =   0.0175439
        k(   44) = (  -0.2810429   0.4867875   0.0000000), wk =   0.0175439
        k(   45) = (  -0.2875788   0.4981081   0.0000000), wk =   0.0175439
        k(   46) = (  -0.2941147   0.5094287   0.0000000), wk =   0.0175439
        k(   47) = (  -0.3006506   0.5207494   0.0000000), wk =   0.0175439
        k(   48) = (  -0.3071865   0.5320700   0.0000000), wk =   0.0175439
        k(   49) = (  -0.3137224   0.5433907   0.0000000), wk =   0.0175439
        k(   50) = (  -0.3202582   0.5547113   0.0000000), wk =   0.0175439
        k(   51) = (  -0.3267941   0.5660319   0.0000000), wk =   0.0175439
        k(   52) = (  -0.3333300   0.5773526   0.0000000), wk =   0.0175439
        k(   53) = (  -0.3252000   0.5773525   0.0000000), wk =   0.0175439
        k(   54) = (  -0.3170700   0.5773525   0.0000000), wk =   0.0175439
        k(   55) = (  -0.3089400   0.5773524   0.0000000), wk =   0.0175439
        k(   56) = (  -0.3008100   0.5773524   0.0000000), wk =   0.0175439
        k(   57) = (  -0.2926800   0.5773523   0.0000000), wk =   0.0175439
        k(   58) = (  -0.2845500   0.5773522   0.0000000), wk =   0.0175439
        k(   59) = (  -0.2764200   0.5773522   0.0000000), wk =   0.0175439
        k(   60) = (  -0.2682900   0.5773521   0.0000000), wk =   0.0175439
        k(   61) = (  -0.2601600   0.5773521   0.0000000), wk =   0.0175439
        k(   62) = (  -0.2520300   0.5773520   0.0000000), wk =   0.0175439
        k(   63) = (  -0.2439000   0.5773520   0.0000000), wk =   0.0175439
        k(   64) = (  -0.2357700   0.5773519   0.0000000), wk =   0.0175439
        k(   65) = (  -0.2276400   0.5773518   0.0000000), wk =   0.0175439
        k(   66) = (  -0.2195100   0.5773518   0.0000000), wk =   0.0175439
        k(   67) = (  -0.2113800   0.5773517   0.0000000), wk =   0.0175439
        k(   68) = (  -0.2032500   0.5773517   0.0000000), wk =   0.0175439
        k(   69) = (  -0.1951200   0.5773516   0.0000000), wk =   0.0175439
        k(   70) = (  -0.1869900   0.5773516   0.0000000), wk =   0.0175439
        k(   71) = (  -0.1788600   0.5773515   0.0000000), wk =   0.0175439
        k(   72) = (  -0.1707300   0.5773515   0.0000000), wk =   0.0175439
        k(   73) = (  -0.1626000   0.5773514   0.0000000), wk =   0.0175439
        k(   74) = (  -0.1544700   0.5773513   0.0000000), wk =   0.0175439
        k(   75) = (  -0.1463400   0.5773513   0.0000000), wk =   0.0175439
        k(   76) = (  -0.1382100   0.5773512   0.0000000), wk =   0.0175439
        k(   77) = (  -0.1300800   0.5773512   0.0000000), wk =   0.0175439
        k(   78) = (  -0.1219500   0.5773511   0.0000000), wk =   0.0175439
        k(   79) = (  -0.1138200   0.5773511   0.0000000), wk =   0.0175439
        k(   80) = (  -0.1056900   0.5773510   0.0000000), wk =   0.0175439
        k(   81) = (  -0.0975600   0.5773509   0.0000000), wk =   0.0175439
        k(   82) = (  -0.0894300   0.5773509   0.0000000), wk =   0.0175439
        k(   83) = (  -0.0813000   0.5773508   0.0000000), wk =   0.0175439
        k(   84) = (  -0.0731700   0.5773508   0.0000000), wk =   0.0175439
        k(   85) = (  -0.0650400   0.5773507   0.0000000), wk =   0.0175439
        k(   86) = (  -0.0569100   0.5773507   0.0000000), wk =   0.0175439
        k(   87) = (  -0.0487800   0.5773506   0.0000000), wk =   0.0175439
        k(   88) = (  -0.0406500   0.5773506   0.0000000), wk =   0.0175439
        k(   89) = (  -0.0325200   0.5773505   0.0000000), wk =   0.0175439
        k(   90) = (  -0.0243900   0.5773504   0.0000000), wk =   0.0175439
        k(   91) = (  -0.0162600   0.5773504   0.0000000), wk =   0.0175439
        k(   92) = (  -0.0081300   0.5773503   0.0000000), wk =   0.0175439
        k(   93) = (   0.0000000   0.5773503   0.0000000), wk =   0.0175439
        k(   94) = (   0.0000000   0.5498574   0.0000000), wk =   0.0175439
        k(   95) = (   0.0000000   0.5223645   0.0000000), wk =   0.0175439
        k(   96) = (   0.0000000   0.4948717   0.0000000), wk =   0.0175439
        k(   97) = (   0.0000000   0.4673788   0.0000000), wk =   0.0175439
        k(   98) = (   0.0000000   0.4398859   0.0000000), wk =   0.0175439
        k(   99) = (   0.0000000   0.4123930   0.0000000), wk =   0.0175439
        k(  100) = (   0.0000000   0.3849002   0.0000000), wk =   0.0175439
        k(  101) = (   0.0000000   0.3574073   0.0000000), wk =   0.0175439
        k(  102) = (   0.0000000   0.3299144   0.0000000), wk =   0.0175439
        k(  103) = (   0.0000000   0.3024216   0.0000000), wk =   0.0175439
        k(  104) = (   0.0000000   0.2749287   0.0000000), wk =   0.0175439
        k(  105) = (   0.0000000   0.2474358   0.0000000), wk =   0.0175439
        k(  106) = (   0.0000000   0.2199430   0.0000000), wk =   0.0175439
        k(  107) = (   0.0000000   0.1924501   0.0000000), wk =   0.0175439
        k(  108) = (   0.0000000   0.1649572   0.0000000), wk =   0.0175439
        k(  109) = (   0.0000000   0.1374643   0.0000000), wk =   0.0175439
        k(  110) = (   0.0000000   0.1099715   0.0000000), wk =   0.0175439
        k(  111) = (   0.0000000   0.0824786   0.0000000), wk =   0.0175439
        k(  112) = (   0.0000000   0.0549857   0.0000000), wk =   0.0175439
        k(  113) = (   0.0000000   0.0274929   0.0000000), wk =   0.0175439
        k(  114) = (   0.0000000   0.0000000   0.0000000), wk =   0.0175439

                       cryst. coord.
        k(    1) = (   0.0000000   0.0000000   0.0000000), wk =   0.0175439
        k(    2) = (  -0.0065359   0.0130719   0.0000000), wk =   0.0175439
        k(    3) = (  -0.0130718   0.0261438   0.0000000), wk =   0.0175439
        k(    4) = (  -0.0196076   0.0392157   0.0000000), wk =   0.0175439
        k(    5) = (  -0.0261435   0.0522876   0.0000000), wk =   0.0175439
        k(    6) = (  -0.0326794   0.0653595   0.0000000), wk =   0.0175439
        k(    7) = (  -0.0392153   0.0784314   0.0000000), wk =   0.0175439
        k(    8) = (  -0.0457512   0.0915033   0.0000000), wk =   0.0175439
        k(    9) = (  -0.0522871   0.1045752   0.0000000), wk =   0.0175439
        k(   10) = (  -0.0588229   0.1176471   0.0000000), wk =   0.0175439
        k(   11) = (  -0.0653588   0.1307190   0.0000000), wk =   0.0175439
        k(   12) = (  -0.0718947   0.1437909   0.0000000), wk =   0.0175439
        k(   13) = (  -0.0784306   0.1568628   0.0000000), wk =   0.0175439
        k(   14) = (  -0.0849665   0.1699347   0.0000000), wk =   0.0175439
        k(   15) = (  -0.0915024   0.1830066   0.0000000), wk =   0.0175439
        k(   16) = (  -0.0980382   0.1960785   0.0000000), wk =   0.0175439
        k(   17) = (  -0.1045741   0.2091504   0.0000000), wk =   0.0175439
        k(   18) = (  -0.1111100   0.2222223   0.0000000), wk =   0.0175439
        k(   19) = (  -0.1176459   0.2352942   0.0000000), wk =   0.0175439
        k(   20) = (  -0.1241818   0.2483661   0.0000000), wk =   0.0175439
        k(   21) = (  -0.1307176   0.2614380   0.0000000), wk =   0.0175439
        k(   22) = (  -0.1372535   0.2745099   0.0000000), wk =   0.0175439
        k(   23) = (  -0.1437894   0.2875818   0.0000000), wk =   0.0175439
        k(   24) = (  -0.1503253   0.3006537   0.0000000), wk =   0.0175439
        k(   25) = (  -0.1568612   0.3137256   0.0000000), wk =   0.0175439
        k(   26) = (  -0.1633971   0.3267975   0.0000000), wk =   0.0175439
        k(   27) = (  -0.1699329   0.3398695   0.0000000), wk =   0.0175439
        k(   28) = (  -0.1764688   0.3529414   0.0000000), wk =   0.0175439
        k(   29) = (  -0.1830047   0.3660133   0.0000000), wk =   0.0175439
        k(   30) = (  -0.1895406   0.3790852   0.0000000), wk =   0.0175439
        k(   31) = (  -0.1960765   0.3921571   0.0000000), wk =   0.0175439
        k(   32) = (  -0.2026124   0.4052290   0.0000000), wk =   0.0175439
        k(   33) = (  -0.2091482   0.4183009   0.0000000), wk =   0.0175439
        k(   34) = (  -0.2156841   0.4313728   0.0000000), wk =   0.0175439
        k(   35) = (  -0.2222200   0.4444447   0.0000000), wk =   0.0175439
        k(   36) = (  -0.2287559   0.4575166   0.0000000), wk =   0.0175439
        k(   37) = (  -0.2352918   0.4705885   0.0000000), wk =   0.0175439
        k(   38) = (  -0.2418276   0.4836604   0.0000000), wk =   0.0175439
        k(   39) = (  -0.2483635   0.4967323   0.0000000), wk =   0.0175439
        k(   40) = (  -0.2548994   0.5098042   0.0000000), wk =   0.0175439
        k(   41) = (  -0.2614353   0.5228761   0.0000000), wk =   0.0175439
        k(   42) = (  -0.2679712   0.5359480   0.0000000), wk =   0.0175439
        k(   43) = (  -0.2745071   0.5490199   0.0000000), wk =   0.0175439
        k(   44) = (  -0.2810429   0.5620918   0.0000000), wk =   0.0175439
        k(   45) = (  -0.2875788   0.5751637   0.0000000), wk =   0.0175439
        k(   46) = (  -0.2941147   0.5882356   0.0000000), wk =   0.0175439
        k(   47) = (  -0.3006506   0.6013075   0.0000000), wk =   0.0175439
        k(   48) = (  -0.3071865   0.6143794   0.0000000), wk =   0.0175439
        k(   49) = (  -0.3137224   0.6274513   0.0000000), wk =   0.0175439
        k(   50) = (  -0.3202582   0.6405232   0.0000000), wk =   0.0175439
        k(   51) = (  -0.3267941   0.6535951   0.0000000), wk =   0.0175439
        k(   52) = (  -0.3333300   0.6666670   0.0000000), wk =   0.0175439
        k(   53) = (  -0.3252000   0.6626020   0.0000000), wk =   0.0175439
        k(   54) = (  -0.3170700   0.6585369   0.0000000), wk =   0.0175439
        k(   55) = (  -0.3089400   0.6544719   0.0000000), wk =   0.0175439
        k(   56) = (  -0.3008100   0.6504068   0.0000000), wk =   0.0175439
        k(   57) = (  -0.2926800   0.6463418   0.0000000), wk =   0.0175439
        k(   58) = (  -0.2845500   0.6422767   0.0000000), wk =   0.0175439
        k(   59) = (  -0.2764200   0.6382117   0.0000000), wk =   0.0175439
        k(   60) = (  -0.2682900   0.6341466   0.0000000), wk =   0.0175439
        k(   61) = (  -0.2601600   0.6300816   0.0000000), wk =   0.0175439
        k(   62) = (  -0.2520300   0.6260165   0.0000000), wk =   0.0175439
        k(   63) = (  -0.2439000   0.6219515   0.0000000), wk =   0.0175439
        k(   64) = (  -0.2357700   0.6178864   0.0000000), wk =   0.0175439
        k(   65) = (  -0.2276400   0.6138214   0.0000000), wk =   0.0175439
        k(   66) = (  -0.2195100   0.6097563   0.0000000), wk =   0.0175439
        k(   67) = (  -0.2113800   0.6056913   0.0000000), wk =   0.0175439
        k(   68) = (  -0.2032500   0.6016262   0.0000000), wk =   0.0175439
        k(   69) = (  -0.1951200   0.5975612   0.0000000), wk =   0.0175439
        k(   70) = (  -0.1869900   0.5934961   0.0000000), wk =   0.0175439
        k(   71) = (  -0.1788600   0.5894311   0.0000000), wk =   0.0175439
        k(   72) = (  -0.1707300   0.5853660   0.0000000), wk =   0.0175439
        k(   73) = (  -0.1626000   0.5813010   0.0000000), wk =   0.0175439
        k(   74) = (  -0.1544700   0.5772359   0.0000000), wk =   0.0175439
        k(   75) = (  -0.1463400   0.5731709   0.0000000), wk =   0.0175439
        k(   76) = (  -0.1382100   0.5691058   0.0000000), wk =   0.0175439
        k(   77) = (  -0.1300800   0.5650408   0.0000000), wk =   0.0175439
        k(   78) = (  -0.1219500   0.5609757   0.0000000), wk =   0.0175439
        k(   79) = (  -0.1138200   0.5569107   0.0000000), wk =   0.0175439
        k(   80) = (  -0.1056900   0.5528456   0.0000000), wk =   0.0175439
        k(   81) = (  -0.0975600   0.5487806   0.0000000), wk =   0.0175439
        k(   82) = (  -0.0894300   0.5447155   0.0000000), wk =   0.0175439
        k(   83) = (  -0.0813000   0.5406505   0.0000000), wk =   0.0175439
        k(   84) = (  -0.0731700   0.5365854   0.0000000), wk =   0.0175439
        k(   85) = (  -0.0650400   0.5325204   0.0000000), wk =   0.0175439
        k(   86) = (  -0.0569100   0.5284553   0.0000000), wk =   0.0175439
        k(   87) = (  -0.0487800   0.5243903   0.0000000), wk =   0.0175439
        k(   88) = (  -0.0406500   0.5203252   0.0000000), wk =   0.0175439
        k(   89) = (  -0.0325200   0.5162602   0.0000000), wk =   0.0175439
        k(   90) = (  -0.0243900   0.5121951   0.0000000), wk =   0.0175439
        k(   91) = (  -0.0162600   0.5081301   0.0000000), wk =   0.0175439
        k(   92) = (  -0.0081300   0.5040650   0.0000000), wk =   0.0175439
        k(   93) = (   0.0000000   0.5000000   0.0000000), wk =   0.0175439
        k(   94) = (   0.0000000   0.4761905   0.0000000), wk =   0.0175439
        k(   95) = (   0.0000000   0.4523810   0.0000000), wk =   0.0175439
        k(   96) = (   0.0000000   0.4285714   0.0000000), wk =   0.0175439
        k(   97) = (   0.0000000   0.4047619   0.0000000), wk =   0.0175439
        k(   98) = (   0.0000000   0.3809524   0.0000000), wk =   0.0175439
        k(   99) = (   0.0000000   0.3571429   0.0000000), wk =   0.0175439
        k(  100) = (   0.0000000   0.3333333   0.0000000), wk =   0.0175439
        k(  101) = (   0.0000000   0.3095238   0.0000000), wk =   0.0175439
        k(  102) = (   0.0000000   0.2857143   0.0000000), wk =   0.0175439
        k(  103) = (   0.0000000   0.2619048   0.0000000), wk =   0.0175439
        k(  104) = (   0.0000000   0.2380952   0.0000000), wk =   0.0175439
        k(  105) = (   0.0000000   0.2142857   0.0000000), wk =   0.0175439
        k(  106) = (   0.0000000   0.1904762   0.0000000), wk =   0.0175439
        k(  107) = (   0.0000000   0.1666667   0.0000000), wk =   0.0175439
        k(  108) = (   0.0000000   0.1428571   0.0000000), wk =   0.0175439
        k(  109) = (   0.0000000   0.1190476   0.0000000), wk =   0.0175439
        k(  110) = (   0.0000000   0.0952381   0.0000000), wk =   0.0175439
        k(  111) = (   0.0000000   0.0714286   0.0000000), wk =   0.0175439
        k(  112) = (   0.0000000   0.0476190   0.0000000), wk =   0.0175439
        k(  113) = (   0.0000000   0.0238095   0.0000000), wk =   0.0175439
        k(  114) = (   0.0000000   0.0000000   0.0000000), wk =   0.0175439

     Dense  grid:    57141 G-vectors     FFT dimensions: (  25,  25, 216)

     Dynamical RAM for                 wfc:       0.27 MB

     Dynamical RAM for     wfc (w. buffer):      31.30 MB

     Dynamical RAM for           str. fact:       0.33 MB

     Dynamical RAM for           local pot:       0.00 MB

     Dynamical RAM for          nlocal pot:       0.44 MB

     Dynamical RAM for                qrad:       1.15 MB

     Dynamical RAM for          rho,v,vnew:       0.71 MB

     Dynamical RAM for               rhoin:       0.24 MB

     Dynamical RAM for            rho*nmix:       1.74 MB

     Dynamical RAM for           G-vectors:       0.46 MB

     Dynamical RAM for          h,s,v(r/c):       0.07 MB

     Dynamical RAM for          <psi|beta>:       0.01 MB

     Dynamical RAM for                 psi:       0.54 MB

     Dynamical RAM for                hpsi:       0.54 MB

     Dynamical RAM for      wfcinit/wfcrot:       0.55 MB

     Estimated static dynamical RAM per process >      35.71 MB

     Estimated max dynamical RAM per process >      38.63 MB

     Estimated total dynamical RAM >     309.01 MB

     Initial potential from superposition of free atoms

     starting charge      15.9997, renormalised to      16.0000

     negative rho (up, down):  5.462E-05 0.000E+00


     %%%%%%%%%%%%%%%%%%%%%%%%%%%%%%%%%%%%%%%%%%%%%%%%%%%%%%%%%%%%%%%%%%%%%%%%
     %                                                                      %
     % You are using vdW-DF, which was implemented by the Thonhauser group. %
     % Please cite the following two papers that made this development      %
     % possible and the two reviews that describe the various versions:     %
     %                                                                      %
     %   T. Thonhauser et al., PRL 115, 136402 (2015).                      %
     %   T. Thonhauser et al., PRB 76, 125112 (2007).                       %
     %   K. Berland et al., Rep. Prog. Phys. 78, 066501 (2015).             %
     %   D.C. Langreth et al., J. Phys.: Condens. Matter 21, 084203 (2009). %
     %                                                                      %
     % If you are calculating stress with vdW-DF, please also cite:         %
     %                                                                      %
     %   R. Sabatini et al., J. Phys.: Condens. Matter 24, 424209 (2012).   %
     %                                                                      %
     %%%%%%%%%%%%%%%%%%%%%%%%%%%%%%%%%%%%%%%%%%%%%%%%%%%%%%%%%%%%%%%%%%%%%%%%

     %%%%%%%%%%%%%%%%%%%%%%%%%%%%%%%%%%%%%%%%%%%%%%%%%%%%%%%%%%%%%%%%%%%%%%%%
     %                                                                      %
     %  vdW-DF NEWS:                                                        %
     %                                                                      %
     %  * vdW-DF3 is now available. DOI: 10.1021/acs.jctc.0c00471           %
     %    use with input_dft = 'vdW-DF3-opt1' or 'vdW-DF3-opt2'             %
     %                                                                      %
     %  * Unscreened and range-separated hybrid vdW-DF-cx functionals       %
     %    DOI: 10.1063/1.4986522 and 10.1088/1361-648X/ac2ad2               %
     %    use with input_dft = 'vdW-DF-cx0'    and 'vdW-DF-ahcx'            %
     %  * Unscreened and range-separated hybrid vdW-DF2-b86r functionals    %
     %    DOI: 10.1063/1.4986522 and DOI: 10.1103/PhysRevX.12.041003        %
     %    use with input_dft = 'vdW-DF2-br0' and 'vdW-DF2-ahbr'             %
     %                                                                      %
     %%%%%%%%%%%%%%%%%%%%%%%%%%%%%%%%%%%%%%%%%%%%%%%%%%%%%%%%%%%%%%%%%%%%%%%%


     Carrying out vdW-DF run using the following parameters:
     Nqs    =  20  Npoints =  1024  r_max =  100.000
     q_mesh =  0.00001000  0.04494208  0.09755937  0.15916263
               0.23128650  0.31572767  0.41458969  0.53033537
               0.66584808  0.82450364  1.01025438  1.22772762
               1.48234092  1.78043706  2.12944203  2.53805004
               3.01644009  3.57652955  4.23227104  5.00000000


     -----------------------------------------------
     Non-local corr. energy    =       0.17274028 Ry
     -----------------------------------------------

     Starting wfcs are   16 randomized atomic wfcs +    4 random wfcs

     total cpu time spent up to now is       11.6 secs

     Self-consistent Calculation

     iteration #  1     ecut=    70.00 Ry     beta= 0.70
     Davidson diagonalization with overlap

---- Real-time Memory Report at c_bands before calling an iterative solver
             0 MiB given to the printing process from OS
             0 MiB allocation reported by mallinfo(arena+hblkhd)
             0 MiB available memory on the node where the printing process lives
------------------
     ethr =  1.00E-02,  avg # of iterations =  9.1

     negative rho (up, down):  1.304E-05 0.000E+00


     -----------------------------------------------
     Non-local corr. energy    =       0.20130910 Ry
     -----------------------------------------------


     total cpu time spent up to now is       20.7 secs

     total energy              =     -50.69387639 Ry
     estimated scf accuracy    <       0.62433205 Ry

     iteration #  2     ecut=    70.00 Ry     beta= 0.70
     Davidson diagonalization with overlap

---- Real-time Memory Report at c_bands before calling an iterative solver
             0 MiB given to the printing process from OS
             0 MiB allocation reported by mallinfo(arena+hblkhd)
             0 MiB available memory on the node where the printing process lives
------------------
     ethr =  3.90E-03,  avg # of iterations =  3.9

     negative rho (up, down):  5.976E-06 0.000E+00


     -----------------------------------------------
     Non-local corr. energy    =       0.19740087 Ry
     -----------------------------------------------


     total cpu time spent up to now is       25.5 secs

     WARNING: integrated charge=    16.00000220, expected=    16.00000000

     total energy              =     -50.75636702 Ry
     estimated scf accuracy    <       0.31380607 Ry

     iteration #  3     ecut=    70.00 Ry     beta= 0.70
     Davidson diagonalization with overlap

---- Real-time Memory Report at c_bands before calling an iterative solver
             0 MiB given to the printing process from OS
             0 MiB allocation reported by mallinfo(arena+hblkhd)
             0 MiB available memory on the node where the printing process lives
------------------
     ethr =  1.96E-03,  avg # of iterations =  4.1

     negative rho (up, down):  3.940E-06 0.000E+00


     -----------------------------------------------
     Non-local corr. energy    =       0.19694021 Ry
     -----------------------------------------------


     total cpu time spent up to now is       30.2 secs

     WARNING: integrated charge=    16.00000196, expected=    16.00000000

     total energy              =     -50.76709104 Ry
     estimated scf accuracy    <       0.49024503 Ry

     iteration #  4     ecut=    70.00 Ry     beta= 0.70
     Davidson diagonalization with overlap

---- Real-time Memory Report at c_bands before calling an iterative solver
             0 MiB given to the printing process from OS
             0 MiB allocation reported by mallinfo(arena+hblkhd)
             0 MiB available memory on the node where the printing process lives
------------------
     ethr =  1.96E-03,  avg # of iterations =  2.6

     negative rho (up, down):  5.946E-07 0.000E+00


     -----------------------------------------------
     Non-local corr. energy    =       0.19816967 Ry
     -----------------------------------------------


     total cpu time spent up to now is       34.2 secs

     WARNING: integrated charge=    16.00062880, expected=    16.00000000

     total energy              =     -50.86623320 Ry
     estimated scf accuracy    <       0.01102638 Ry

     iteration #  5     ecut=    70.00 Ry     beta= 0.70
     Davidson diagonalization with overlap

---- Real-time Memory Report at c_bands before calling an iterative solver
             0 MiB given to the printing process from OS
             0 MiB allocation reported by mallinfo(arena+hblkhd)
             0 MiB available memory on the node where the printing process lives
------------------
     ethr =  6.89E-05,  avg # of iterations =  6.7

     negative rho (up, down):  9.939E-08 0.000E+00


     -----------------------------------------------
     Non-local corr. energy    =       0.19850362 Ry
     -----------------------------------------------


     total cpu time spent up to now is       39.4 secs

     WARNING: integrated charge=    16.00022870, expected=    16.00000000

     total energy              =     -50.86748550 Ry
     estimated scf accuracy    <       0.00085581 Ry

     iteration #  6     ecut=    70.00 Ry     beta= 0.70
     Davidson diagonalization with overlap

---- Real-time Memory Report at c_bands before calling an iterative solver
             0 MiB given to the printing process from OS
             0 MiB allocation reported by mallinfo(arena+hblkhd)
             0 MiB available memory on the node where the printing process lives
------------------
     c_bands:  1 eigenvalues not converged
     ethr =  5.35E-06,  avg # of iterations =  6.6


     -----------------------------------------------
     Non-local corr. energy    =       0.19863151 Ry
     -----------------------------------------------


     total cpu time spent up to now is       45.0 secs

     WARNING: integrated charge=    16.00006612, expected=    16.00000000

     total energy              =     -50.86760110 Ry
     estimated scf accuracy    <       0.00027656 Ry

     iteration #  7     ecut=    70.00 Ry     beta= 0.70
     Davidson diagonalization with overlap

---- Real-time Memory Report at c_bands before calling an iterative solver
             0 MiB given to the printing process from OS
             0 MiB allocation reported by mallinfo(arena+hblkhd)
             0 MiB available memory on the node where the printing process lives
------------------
     ethr =  1.73E-06,  avg # of iterations =  2.5


     -----------------------------------------------
     Non-local corr. energy    =       0.19868507 Ry
     -----------------------------------------------


     total cpu time spent up to now is       48.9 secs

     WARNING: integrated charge=    15.99999202, expected=    16.00000000

     total energy              =     -50.86764057 Ry
     estimated scf accuracy    <       0.00011676 Ry

     iteration #  8     ecut=    70.00 Ry     beta= 0.70
     Davidson diagonalization with overlap

---- Real-time Memory Report at c_bands before calling an iterative solver
             0 MiB given to the printing process from OS
             0 MiB allocation reported by mallinfo(arena+hblkhd)
             0 MiB available memory on the node where the printing process lives
------------------
     ethr =  7.30E-07,  avg # of iterations =  1.0
     Minimization algorithm failed to find Fermi energy: reverting to bisection
     Possible cause: smearing is larger than the electronic band-gap.


     -----------------------------------------------
     Non-local corr. energy    =       0.19868013 Ry
     -----------------------------------------------


     total cpu time spent up to now is       52.3 secs

     WARNING: integrated charge=    15.99999816, expected=    16.00000000

     total energy              =     -50.86766045 Ry
     estimated scf accuracy    <       0.00000749 Ry

     iteration #  9     ecut=    70.00 Ry     beta= 0.70
     Davidson diagonalization with overlap

---- Real-time Memory Report at c_bands before calling an iterative solver
             0 MiB given to the printing process from OS
             0 MiB allocation reported by mallinfo(arena+hblkhd)
             0 MiB available memory on the node where the printing process lives
------------------
     ethr =  4.68E-08,  avg # of iterations =  1.5


     -----------------------------------------------
     Non-local corr. energy    =       0.19867873 Ry
     -----------------------------------------------


     total cpu time spent up to now is       56.0 secs

     WARNING: integrated charge=    16.00000259, expected=    16.00000000

     total energy              =     -50.86766051 Ry
     estimated scf accuracy    <       0.00000203 Ry

     iteration # 10     ecut=    70.00 Ry     beta= 0.70
     Davidson diagonalization with overlap

---- Real-time Memory Report at c_bands before calling an iterative solver
             0 MiB given to the printing process from OS
             0 MiB allocation reported by mallinfo(arena+hblkhd)
             0 MiB available memory on the node where the printing process lives
------------------
     ethr =  1.27E-08,  avg # of iterations =  1.8


     -----------------------------------------------
     Non-local corr. energy    =       0.19868057 Ry
     -----------------------------------------------


     total cpu time spent up to now is       59.7 secs

     End of self-consistent calculation

          k = 0.0000 0.0000 0.0000 (  7157 PWs)   bands (ev):

   -20.0713 -19.7749  -8.4965  -7.1581  -3.8165  -3.8164  -3.3823  -3.3823
     2.3152   2.7753   3.8937   4.9814   5.2804   7.0545   7.4724   7.4725
     7.7977   9.7231   9.7231   9.9190

     occupation numbers 
     1.0000   1.0000   1.0000   1.0000   1.0000   1.0000   1.0000   1.0000
     0.0000   0.0000   0.0000   0.0000   0.0000   0.0000   0.0000   0.0000
     0.0000   0.0000   0.0000   0.0000

          k =-0.0065 0.0113 0.0000 (  7145 PWs)   bands (ev):

   -20.0683 -19.7724  -8.4930  -7.1547  -3.8288  -3.8228  -3.3932  -3.3874
     2.3194   2.7793   3.8979   4.9855   5.2843   7.0577   7.4743   7.4854
     7.8017   9.7213   9.7345   9.9203

     occupation numbers 
     1.0000   1.0000   1.0000   1.0000   1.0000   1.0000   1.0000   1.0000
     0.0000   0.0000   0.0000   0.0000   0.0000   0.0000   0.0000   0.0000
     0.0000   0.0000   0.0000   0.0000

          k =-0.0131 0.0226 0.0000 (  7165 PWs)   bands (ev):

   -20.0595 -19.7647  -8.4823  -7.1446  -3.8663  -3.8423  -3.4257  -3.4030
     2.3320   2.7914   3.9103   4.9978   5.2960   7.0674   7.4796   7.5236
     7.8137   9.7159   9.7686   9.9244

     occupation numbers 
     1.0000   1.0000   1.0000   1.0000   1.0000   1.0000   1.0000   1.0000
     0.0000   0.0000   0.0000   0.0000   0.0000   0.0000   0.0000   0.0000
     0.0000   0.0000   0.0000   0.0000

          k =-0.0196 0.0340 0.0000 (  7165 PWs)   bands (ev):

   -20.0447 -19.7520  -8.4645  -7.1278  -3.9276  -3.8747  -3.4794  -3.4288
     2.3529   2.8116   3.9311   5.0184   5.3155   7.0836   7.4889   7.5865
     7.8336   9.7076   9.8244   9.9311

     occupation numbers 
     1.0000   1.0000   1.0000   1.0000   1.0000   1.0000   1.0000   1.0000
     0.0000   0.0000   0.0000   0.0000   0.0000   0.0000   0.0000   0.0000
     0.0000   0.0000   0.0000   0.0000

          k =-0.0261 0.0453 0.0000 (  7167 PWs)   bands (ev):

   -20.0241 -19.7343  -8.4395  -7.1043  -4.0120  -3.9197  -3.5533  -3.4647
     2.3820   2.8397   3.9601   5.0471   5.3426   7.1061   7.5022   7.6719
     7.8614   9.6975   9.8992   9.9411

     occupation numbers 
     1.0000   1.0000   1.0000   1.0000   1.0000   1.0000   1.0000   1.0000
     0.0000   0.0000   0.0000   0.0000   0.0000   0.0000   0.0000   0.0000
     0.0000   0.0000   0.0000   0.0000

          k =-0.0327 0.0566 0.0000 (  7175 PWs)   bands (ev):

   -19.9976 -19.7114  -8.4075  -7.0742  -4.1181  -3.9772  -3.6464  -3.5106
     2.4195   2.8759   3.9974   5.0839   5.3774   7.1346   7.5196   7.7780
     7.8967   9.6862   9.9436  10.0012

     occupation numbers 
     1.0000   1.0000   1.0000   1.0000   1.0000   1.0000   1.0000   1.0000
     0.0000   0.0000   0.0000   0.0000   0.0000   0.0000   0.0000   0.0000
     0.0000   0.0000   0.0000   0.0000

          k =-0.0392 0.0679 0.0000 (  7167 PWs)   bands (ev):

   -19.9653 -19.6836  -8.3683  -7.0373  -4.2441  -4.0469  -3.7575  -3.5663
     2.4650   2.9200   4.0429   5.1289   5.4196   7.1689   7.5418   7.9020
     7.9394   9.6707   9.9403   9.9813

     occupation numbers 
     1.0000   1.0000   1.0000   1.0000   1.0000   1.0000   1.0000   1.0000
     0.0000   0.0000   0.0000   0.0000   0.0000   0.0000   0.0000   0.0000
     0.0000   0.0000   0.0000   0.0000

          k =-0.0458 0.0792 0.0000 (  7155 PWs)   bands (ev):

   -19.9271 -19.6506  -8.3220  -6.9938  -4.3885  -4.1283  -3.8851  -3.6313
     2.5187   2.9721   4.0967   5.1819   5.4692   7.2088   7.5690   7.9893
     8.0409   9.6534   9.8418   9.9668

     occupation numbers 
     1.0000   1.0000   1.0000   1.0000   1.0000   1.0000   1.0000   1.0000
     0.0000   0.0000   0.0000   0.0000   0.0000   0.0000   0.0000   0.0000
     0.0000   0.0000   0.0000   0.0000

          k =-0.0523 0.0906 0.0000 (  7163 PWs)   bands (ev):

   -19.8830 -19.6127  -8.2687  -6.9437  -4.5494  -4.2212  -4.0279  -3.7056
     2.5804   3.0321   4.1587   5.2430   5.5259   7.2538   7.6010   8.0462
     8.1912   9.6125   9.7347   9.9696

     occupation numbers 
     1.0000   1.0000   1.0000   1.0000   1.0000   1.0000   1.0000   1.0000
     0.0000   0.0000   0.0000   0.0000   0.0000   0.0000   0.0000   0.0000
     0.0000   0.0000   0.0000   0.0000

          k =-0.0588 0.1019 0.0000 (  7159 PWs)   bands (ev):

   -19.8332 -19.5698  -8.2083  -6.8871  -4.7247  -4.3252  -4.1841  -3.7886
     2.6501   3.1000   4.2288   5.3121   5.5897   7.3033   7.6385   8.1098
     8.3494   9.4962   9.6890   9.9688

     occupation numbers 
     1.0000   1.0000   1.0000   1.0000   1.0000   1.0000   1.0000   1.0000
     0.0000   0.0000   0.0000   0.0000   0.0000   0.0000   0.0000   0.0000
     0.0000   0.0000   0.0000   0.0000

          k =-0.0654 0.1132 0.0000 (  7159 PWs)   bands (ev):

   -19.7776 -19.5219  -8.1410  -6.8240  -4.9129  -4.4399  -4.3519  -3.8801
     2.7278   3.1756   4.3072   5.3892   5.6603   7.3569   7.6817   8.1799
     8.5119   9.3318   9.6803   9.9620

     occupation numbers 
     1.0000   1.0000   1.0000   1.0000   1.0000   1.0000   1.0000   1.0000
     0.0000   0.0000   0.0000   0.0000   0.0000   0.0000   0.0000   0.0000
     0.0000   0.0000   0.0000   0.0000

          k =-0.0719 0.1245 0.0000 (  7153 PWs)   bands (ev):

   -19.7163 -19.4691  -8.0667  -6.7544  -5.1121  -4.5662  -4.5285  -3.9795
     2.8133   3.2591   4.3938   5.4741   5.7374   7.4135   7.7307   8.2563
     8.6756   9.1463   9.6839   9.9474

     occupation numbers 
     1.0000   1.0000   1.0000   1.0000   1.0000   1.0000   1.0000   1.0000
     0.0000   0.0000   0.0000   0.0000   0.0000   0.0000   0.0000   0.0000
     0.0000   0.0000   0.0000   0.0000

          k =-0.0784 0.1358 0.0000 (  7147 PWs)   bands (ev):

   -19.6492 -19.4114  -7.9856  -6.6784  -5.3206  -4.7249  -4.6912  -4.0865
     2.9067   3.3503   4.4885   5.5669   5.8210   7.4723   7.7858   8.3382
     8.8372   8.9455   9.6947   9.9243

     occupation numbers 
     1.0000   1.0000   1.0000   1.0000   1.0000   1.0000   1.0000   1.0000
     0.0000   0.0000   0.0000   0.0000   0.0000   0.0000   0.0000   0.0000
     0.0000   0.0000   0.0000   0.0000

          k =-0.0850 0.1472 0.0000 (  7123 PWs)   bands (ev):

   -19.5766 -19.3487  -7.8974  -6.5962  -5.5372  -4.9178  -4.8361  -4.2006
     3.0079   3.4492   4.5913   5.6674   5.9105   7.5319   7.8468   8.4253
     8.7318   8.9947   9.7128   9.8933

     occupation numbers 
     1.0000   1.0000   1.0000   1.0000   1.0000   1.0000   1.0000   1.0000
     0.0000   0.0000   0.0000   0.0000   0.0000   0.0000   0.0000   0.0000
     0.0000   0.0000   0.0000   0.0000

          k =-0.0915 0.1585 0.0000 (  7131 PWs)   bands (ev):

   -19.4983 -19.2811  -7.8025  -6.5077  -5.7607  -5.1195  -4.9870  -4.3212
     3.1169   3.5556   4.7023   5.7754   6.0055   7.5902   7.9136   8.5038
     8.5199   9.1452   9.7374   9.8571

     occupation numbers 
     1.0000   1.0000   1.0000   1.0000   1.0000   1.0000   1.0000   1.0000
     0.0000   0.0000   0.0000   0.0000   0.0000   0.0000   0.0000   0.0000
     0.0000   0.0000   0.0000   0.0000

          k =-0.0980 0.1698 0.0000 (  7133 PWs)   bands (ev):

   -19.4147 -19.2087  -7.7010  -6.4133  -5.9893  -5.3266  -5.1450  -4.4480
     3.2337   3.6696   4.8215   5.8906   6.1054   7.6446   7.9859   8.2722
     8.6122   9.2878   9.7653   9.8236

     occupation numbers 
     1.0000   1.0000   1.0000   1.0000   1.0000   1.0000   1.0000   1.0000
     0.0000   0.0000   0.0000   0.0000   0.0000   0.0000   0.0000   0.0000
     0.0000   0.0000   0.0000   0.0000

          k =-0.1046 0.1811 0.0000 (  7131 PWs)   bands (ev):

   -19.3258 -19.1313  -7.5928  -6.3133  -6.2220  -5.5376  -5.3098  -4.5802
     3.3583   3.7909   4.9487   6.0125   6.2096   7.6908   8.0275   8.0672
     8.7096   9.4217   9.7692   9.8272

     occupation numbers 
     1.0000   1.0000   1.0000   1.0000   1.0000   1.0000   1.0000   1.0000
     0.0000   0.0000   0.0000   0.0000   0.0000   0.0000   0.0000   0.0000
     0.0000   0.0000   0.0000   0.0000

          k =-0.1111 0.1925 0.0000 (  7139 PWs)   bands (ev):

   -19.2317 -19.0489  -7.4782  -6.4586  -6.2077  -5.7509  -5.4807  -4.7175
     3.4907   3.9194   5.0840   6.1400   6.3172   7.7044   7.8031   8.1486
     8.8085   9.5460   9.7541   9.8718

     occupation numbers 
     1.0000   1.0000   1.0000   1.0000   1.0000   1.0000   1.0000   1.0000
     0.0000   0.0000   0.0000   0.0000   0.0000   0.0000   0.0000   0.0000
     0.0000   0.0000   0.0000   0.0000

          k =-0.1176 0.2038 0.0000 (  7123 PWs)   bands (ev):

   -19.1328 -18.9613  -7.3573  -6.6969  -6.1039  -5.9587  -5.6571  -4.8593
     3.6308   4.0550   5.2273   6.2703   6.4278   7.5039   7.7712   8.2381
     8.9080   9.6584   9.7586   9.9294

     occupation numbers 
     1.0000   1.0000   1.0000   1.0000   1.0000   1.0000   1.0000   1.0000
     0.0000   0.0000   0.0000   0.0000   0.0000   0.0000   0.0000   0.0000
     0.0000   0.0000   0.0000   0.0000

          k =-0.1242 0.2151 0.0000 (  7133 PWs)   bands (ev):

   -19.0294 -18.8684  -7.2307  -6.9370  -6.1958  -5.9658  -5.8386  -5.0051
     3.7786   4.1972   5.3786   6.3969   6.5432   7.2441   7.7797   8.3337
     9.0085   9.7484   9.8039   9.9971

     occupation numbers 
     1.0000   1.0000   1.0000   1.0000   1.0000   1.0000   1.0000   1.0000
     0.0000   0.0000   0.0000   0.0000   0.0000   0.0000   0.0000   0.0000
     0.0000   0.0000   0.0000   0.0000

          k =-0.1307 0.2264 0.0000 (  7135 PWs)   bands (ev):

   -18.9220 -18.7698  -7.1783  -7.0991  -6.4074  -6.0245  -5.8465  -5.1544
     3.9341   4.3457   5.5377   6.5051   6.6686   6.9798   7.7815   8.4357
     9.1120   9.8202   9.8900  10.0744

     occupation numbers 
     1.0000   1.0000   1.0000   1.0000   1.0000   1.0000   1.0000   1.0000
     0.0000   0.0000   0.0000   0.0000   0.0000   0.0000   0.0000   0.0000
     0.0000   0.0000   0.0000   0.0000

          k =-0.1373 0.2377 0.0000 (  7128 PWs)   bands (ev):

   -18.8113 -18.6651  -7.4192  -6.9693  -6.6146  -6.2141  -5.7185  -5.3066
     4.0973   4.4999   5.7044   6.5649   6.7111   6.8277   7.7845   8.5446
     9.2211   9.9081   9.9829  10.1606

     occupation numbers 
     1.0000   1.0000   1.0000   1.0000   1.0000   1.0000   1.0000   1.0000
     0.0000   0.0000   0.0000   0.0000   0.0000   0.0000   0.0000   0.0000
     0.0000   0.0000   0.0000   0.0000

          k =-0.1438 0.2491 0.0000 (  7132 PWs)   bands (ev):

   -18.6980 -18.5536  -7.6599  -6.9168  -6.7379  -6.4069  -5.5854  -5.4606
     4.2680   4.6586   5.8782   6.4003   6.6433   6.9817   7.8030   8.6601
     9.3382  10.0166  10.0757  10.2543

     occupation numbers 
     1.0000   1.0000   1.0000   1.0000   1.0000   1.0000   1.0000   1.0000
     0.0000   0.0000   0.0000   0.0000   0.0000   0.0000   0.0000   0.0000
     0.0000   0.0000   0.0000   0.0000

          k =-0.1503 0.2604 0.0000 (  7136 PWs)   bands (ev):

   -18.5829 -18.4349  -7.8998  -7.0876  -6.6315  -6.6013  -5.6194  -5.4444
     4.4462   4.8203   6.0530   6.1336   6.6291   7.1549   7.8506   8.7823
     9.4648  10.1341  10.1771  10.3548

     occupation numbers 
     1.0000   1.0000   1.0000   1.0000   1.0000   1.0000   1.0000   1.0000
     0.0000   0.0000   0.0000   0.0000   0.0000   0.0000   0.0000   0.0000
     0.0000   0.0000   0.0000   0.0000

          k =-0.1569 0.2717 0.0000 (  7154 PWs)   bands (ev):

   -18.4665 -18.3087  -8.1385  -7.2946  -6.8004  -6.4784  -5.7771  -5.3009
     4.6318   4.9817   5.8464   6.2415   6.5857   7.3386   7.9327   8.9111
     9.6009  10.2348  10.3090  10.4618

     occupation numbers 
     1.0000   1.0000   1.0000   1.0000   1.0000   1.0000   1.0000   1.0000
     0.0000   0.0000   0.0000   0.0000   0.0000   0.0000   0.0000   0.0000
     0.0000   0.0000   0.0000   0.0000

          k =-0.1634 0.2830 0.0000 (  7158 PWs)   bands (ev):

   -18.3492 -18.1750  -8.3754  -7.5035  -6.9996  -6.3168  -5.9358  -5.1525
     4.8243   5.1364   5.5657   6.3821   6.5639   7.5312   8.0466   9.0464
     9.7460  10.3243  10.4615  10.5771

     occupation numbers 
     1.0000   1.0000   1.0000   1.0000   1.0000   1.0000   1.0000   1.0000
     0.0000   0.0000   0.0000   0.0000   0.0000   0.0000   0.0000   0.0000
     0.0000   0.0000   0.0000   0.0000

          k =-0.1699 0.2943 0.0000 (  7158 PWs)   bands (ev):

   -18.2308 -18.0340  -8.6102  -7.7102  -7.1999  -6.1579  -6.0856  -4.9998
     5.0225   5.2439   5.3145   6.3669   6.7015   7.7319   8.1859   9.1878
     9.8990  10.4109  10.6180  10.7065

     occupation numbers 
     1.0000   1.0000   1.0000   1.0000   1.0000   1.0000   1.0000   1.0000
     0.0000   0.0000   0.0000   0.0000   0.0000   0.0000   0.0000   0.0000
     0.0000   0.0000   0.0000   0.0000

          k =-0.1765 0.3057 0.0000 (  7158 PWs)   bands (ev):

   -18.1115 -17.8861  -8.8427  -7.9136  -7.4008  -6.2616  -5.9670  -4.8431
     4.9925   5.2207   5.3880   6.3210   6.9051   7.9400   8.3447   9.3352
    10.0586  10.4960  10.7643  10.8610

     occupation numbers 
     1.0000   1.0000   1.0000   1.0000   1.0000   1.0000   1.0000   1.0000
     0.0000   0.0000   0.0000   0.0000   0.0000   0.0000   0.0000   0.0000
     0.0000   0.0000   0.0000   0.0000

          k =-0.1830 0.3170 0.0000 (  7136 PWs)   bands (ev):

   -17.9912 -17.7318  -9.0725  -8.1125  -7.6018  -6.4210  -5.7871  -4.6828
     4.7108   5.3523   5.4931   6.3326   7.1250   8.1550   8.5185   9.4883
    10.2231  10.5802  10.8998  11.0388

     occupation numbers 
     1.0000   1.0000   1.0000   1.0000   1.0000   1.0000   1.0000   1.0000
     0.0000   0.0000   0.0000   0.0000   0.0000   0.0000   0.0000   0.0000
     0.0000   0.0000   0.0000   0.0000

          k =-0.1895 0.3283 0.0000 (  7154 PWs)   bands (ev):

   -17.8699 -17.5714  -9.2996  -8.3064  -7.8026  -6.5811  -5.6010  -4.5195
     4.4292   5.3124   5.6936   6.4237   7.3550   8.3762   8.7041   9.6465
    10.3903  10.6634  11.0334  11.2292

     occupation numbers 
     1.0000   1.0000   1.0000   1.0000   1.0000   1.0000   1.0000   1.0000
     0.0000   0.0000   0.0000   0.0000   0.0000   0.0000   0.0000   0.0000
     0.0000   0.0000   0.0000   0.0000

          k =-0.1961 0.3396 0.0000 (  7142 PWs)   bands (ev):

   -17.7480 -17.4052  -9.5233  -8.4945  -8.0026  -6.7406  -5.4098  -4.3534
     4.1489   5.1927   5.9197   6.5766   7.5937   8.6027   8.8995   9.8098
    10.5572  10.7473  11.1687  11.4265

     occupation numbers 
     1.0000   1.0000   1.0000   1.0000   1.0000   1.0000   1.0000   1.0000
     0.0000   0.0000   0.0000   0.0000   0.0000   0.0000   0.0000   0.0000
     0.0000   0.0000   0.0000   0.0000

          k =-0.2026 0.3509 0.0000 (  7140 PWs)   bands (ev):

   -17.6255 -17.2334  -9.7438  -8.6763  -8.2015  -6.8992  -5.2139  -4.1851
     3.8706   5.0356   6.1561   6.7671   7.8406   8.8329   9.1033   9.9776
    10.7165  10.8363  11.3064  11.6273

     occupation numbers 
     1.0000   1.0000   1.0000   1.0000   1.0000   1.0000   1.0000   1.0000
     0.0000   0.0000   0.0000   0.0000   0.0000   0.0000   0.0000   0.0000
     0.0000   0.0000   0.0000   0.0000

          k =-0.2091 0.3623 0.0000 (  7152 PWs)   bands (ev):

   -17.5030 -17.0563  -9.9608  -8.8510  -8.3990  -7.0565  -5.0136  -4.0150
     3.5947   4.8599   6.4004   6.9804   8.0952   9.0646   9.3149  10.1494
    10.8478  10.9482  11.4458  11.8291

     occupation numbers 
     1.0000   1.0000   1.0000   1.0000   1.0000   1.0000   1.0000   1.0000
     0.0000   0.0000   0.0000   0.0000   0.0000   0.0000   0.0000   0.0000
     0.0000   0.0000   0.0000   0.0000

          k =-0.2157 0.3736 0.0000 (  7136 PWs)   bands (ev):

   -17.3809 -16.8741 -10.1742  -9.0180  -8.5944  -7.2122  -4.8093  -3.8439
     3.3217   4.6756   6.6520   7.2088   8.3572   9.2940   9.5347  10.3249
    10.9406  11.0907  11.5857  12.0292

     occupation numbers 
     1.0000   1.0000   1.0000   1.0000   1.0000   1.0000   1.0000   1.0000
     0.0000   0.0000   0.0000   0.0000   0.0000   0.0000   0.0000   0.0000
     0.0000   0.0000   0.0000   0.0000

          k =-0.2222 0.3849 0.0000 (  7126 PWs)   bands (ev):

   -17.2597 -16.6869 -10.3837  -9.1766  -8.7875  -7.3660  -4.6015  -3.6723
     3.0519   4.4883   6.9107   7.4481   8.6261   9.5160   9.7635  10.5032
    11.0172  11.2385  11.7232  12.2242

     occupation numbers 
     1.0000   1.0000   1.0000   1.0000   1.0000   1.0000   1.0000   1.0000
     0.0000   0.0000   0.0000   0.0000   0.0000   0.0000   0.0000   0.0000
     0.0000   0.0000   0.0000   0.0000

          k =-0.2288 0.3962 0.0000 (  7126 PWs)   bands (ev):

   -17.1400 -16.4951 -10.5893  -9.3261  -8.9781  -7.5177  -4.3907  -3.5010
     2.7857   4.3014   7.1759   7.6953   8.9010   9.7243  10.0020  10.6835
    11.0875  11.3795  11.8545  12.4082

     occupation numbers 
     1.0000   1.0000   1.0000   1.0000   1.0000   1.0000   1.0000   1.0000
     0.0000   0.0000   0.0000   0.0000   0.0000   0.0000   0.0000   0.0000
     0.0000   0.0000   0.0000   0.0000

          k =-0.2353 0.4075 0.0000 (  7118 PWs)   bands (ev):

   -17.0225 -16.2988 -10.7907  -9.4658  -9.1653  -7.6669  -4.1774  -3.3307
     2.5232   4.1176   7.4475   7.9484   9.1804   9.9137  10.2481  10.8647
    11.1553  11.5095  11.9748  12.5216

     occupation numbers 
     1.0000   1.0000   1.0000   1.0000   1.0000   1.0000   1.0000   1.0000
     0.0000   0.0000   0.0000   0.0000   0.0000   0.0000   0.0000   0.0000
     0.0000   0.0000   0.0000   0.0000

          k =-0.2418 0.4189 0.0000 (  7110 PWs)   bands (ev):

   -16.9081 -16.0984 -10.9881  -9.5951  -9.3490  -7.8135  -3.9623  -3.1623
     2.2649   3.9390   7.7251   8.2050   9.4608  10.0807  10.4967  11.0452
    11.2242  11.6257  12.0779  12.4944

     occupation numbers 
     1.0000   1.0000   1.0000   1.0000   1.0000   1.0000   1.0000   1.0000
     0.0000   0.0000   0.0000   0.0000   0.0000   0.0000   0.0000   0.0000
     0.0000   0.0000   0.0000   0.0000

          k =-0.2484 0.4302 0.0000 (  7118 PWs)   bands (ev):

   -16.7974 -15.8940 -11.1812  -9.7133  -9.5283  -7.9571  -3.7463  -2.9965
     2.0108   3.7672   8.0081   8.4627   9.7331  10.2281  10.7374  11.2199
    11.3027  11.7236  12.1616  12.4782

     occupation numbers 
     1.0000   1.0000   1.0000   1.0000   1.0000   1.0000   1.0000   1.0000
     0.0000   0.0000   0.0000   0.0000   0.0000   0.0000   0.0000   0.0000
     0.0000   0.0000   0.0000   0.0000

          k =-0.2549 0.4415 0.0000 (  7126 PWs)   bands (ev):

   -16.6913 -15.6861 -11.3699  -9.8207  -9.7019  -8.0974  -3.5305  -2.8341
     1.7615   3.6038   8.2960   8.7179   9.9711  10.3777  10.9512  11.3548
    11.4316  11.7979  12.2437  12.5118

     occupation numbers 
     1.0000   1.0000   1.0000   1.0000   1.0000   1.0000   1.0000   1.0000
     0.0000   0.0000   0.0000   0.0000   0.0000   0.0000   0.0000   0.0000
     0.0000   0.0000   0.0000   0.0000

          k =-0.2614 0.4528 0.0000 (  7114 PWs)   bands (ev):

   -16.5907 -15.4749 -11.5542  -9.9232  -9.8627  -8.2343  -3.3162  -2.6753
     1.5171   3.4502   8.5881   8.9656  10.1248  10.5792  11.1111  11.4518
    11.6117  11.8653  12.3585  12.5842

     occupation numbers 
     1.0000   1.0000   1.0000   1.0000   1.0000   1.0000   1.0000   1.0000
     0.0000   0.0000   0.0000   0.0000   0.0000   0.0000   0.0000   0.0000
     0.0000   0.0000   0.0000   0.0000

          k =-0.2680 0.4641 0.0000 (  7102 PWs)   bands (ev):

   -16.4964 -15.2611 -11.7340 -10.0561  -9.9739  -8.3672  -3.1056  -2.5202
     1.2776   3.3077   8.8834   9.1981  10.1876  10.8427  11.2089  11.5359
    11.7879  11.9809  12.5156  12.6790

     occupation numbers 
     1.0000   1.0000   1.0000   1.0000   1.0000   1.0000   1.0000   1.0000
     0.0000   0.0000   0.0000   0.0000   0.0000   0.0000   0.0000   0.0000
     0.0000   0.0000   0.0000   0.0000

          k =-0.2745 0.4755 0.0000 (  7094 PWs)   bands (ev):

   -16.4094 -15.0453 -11.9092 -10.2103 -10.0437  -8.4959  -2.9017  -2.3681
     1.0433   3.1775   9.1801   9.4043  10.1994  11.1271  11.2737  11.6073
    11.9304  12.1734  12.7013  12.7956

     occupation numbers 
     1.0000   1.0000   1.0000   1.0000   1.0000   1.0000   1.0000   1.0000
     0.0000   0.0000   0.0000   0.0000   0.0000   0.0000   0.0000   0.0000
     0.0000   0.0000   0.0000   0.0000

          k =-0.2810 0.4868 0.0000 (  7088 PWs)   bands (ev):

   -16.3305 -14.8282 -12.0797 -10.3616 -10.0948  -8.6198  -2.7091  -2.2166
     0.8145   3.0608   9.4753   9.5710  10.1886  11.3127  11.4119  11.7062
    12.0540  12.3899  12.8796  12.9651

     occupation numbers 
     1.0000   1.0000   1.0000   1.0000   1.0000   1.0000   1.0000   1.0000
     0.0000   0.0000   0.0000   0.0000   0.0000   0.0000   0.0000   0.0000
     0.0000   0.0000   0.0000   0.0000

          k =-0.2876 0.4981 0.0000 (  7094 PWs)   bands (ev):

   -16.2602 -14.6109 -12.2457 -10.5062 -10.1303  -8.7384  -2.5337  -2.0620
     0.5911   2.9584   9.6746   9.7757  10.1709  11.4089  11.5537  11.9220
    12.1655  12.5832  13.0443  13.1966

     occupation numbers 
     1.0000   1.0000   1.0000   1.0000   1.0000   1.0000   1.0000   1.0000
     0.0000   0.0000   0.0000   0.0000   0.0000   0.0000   0.0000   0.0000
     0.0000   0.0000   0.0000   0.0000

          k =-0.2941 0.5094 0.0000 (  7100 PWs)   bands (ev):

   -16.1993 -14.3946 -12.4069 -10.6419 -10.1511  -8.8507  -2.3823  -1.8996
     0.3733   2.8711   9.7299  10.0599  10.1528  11.5398  11.6169  12.2054
    12.2813  12.7354  13.2199  13.4555

     occupation numbers 
     1.0000   1.0000   1.0000   1.0000   1.0000   1.0000   1.0000   1.0000
     0.0000   0.0000   0.0000   0.0000   0.0000   0.0000   0.0000   0.0000
     0.0000   0.0000   0.0000   0.0000

          k =-0.3007 0.5207 0.0000 (  7100 PWs)   bands (ev):

   -16.1480 -14.1812 -12.5634 -10.7671 -10.1582  -8.9554  -2.2591  -1.7271
     0.1614   2.7993   9.7399  10.1318  10.3334  11.6312  11.7372  12.3165
    12.5677  12.8565  13.3858  13.7302

     occupation numbers 
     1.0000   1.0000   1.0000   1.0000   1.0000   1.0000   1.0000   1.0000
     0.0000   0.0000   0.0000   0.0000   0.0000   0.0000   0.0000   0.0000
     0.0000   0.0000   0.0000   0.0000

          k =-0.3072 0.5321 0.0000 (  7102 PWs)   bands (ev):

   -16.1066 -13.9730 -12.7151 -10.8792 -10.1534  -9.0508  -2.1645  -1.5458
    -0.0444   2.7428   9.7255  10.1090  10.5818  11.6635  11.9380  12.3659
    12.8554  12.9929  13.5136  14.0038

     occupation numbers 
     1.0000   1.0000   1.0000   1.0000   1.0000   1.0000   1.0000   1.0000
     0.0000   0.0000   0.0000   0.0000   0.0000   0.0000   0.0000   0.0000
     0.0000   0.0000   0.0000   0.0000

          k =-0.3137 0.5434 0.0000 (  7114 PWs)   bands (ev):

   -16.0751 -13.7732 -12.8619 -10.9752 -10.1397  -9.1340  -2.0961  -1.3595
    -0.2443   2.7012   9.7023  10.0851  10.7906  11.6978  12.1443  12.3908
    12.9942  13.2379  13.6069  14.2298

     occupation numbers 
     1.0000   1.0000   1.0000   1.0000   1.0000   1.0000   1.0000   1.0000
     0.0000   0.0000   0.0000   0.0000   0.0000   0.0000   0.0000   0.0000
     0.0000   0.0000   0.0000   0.0000

          k =-0.3203 0.5547 0.0000 (  7110 PWs)   bands (ev):

   -16.0532 -13.5861 -13.0039 -11.0508 -10.1216  -9.2009  -2.0504  -1.1722
    -0.4378   2.6735   9.6798  10.0641  10.9417  11.7429  12.3177  12.4027
    13.0909  13.3884  13.7621  14.2875

     occupation numbers 
     1.0000   1.0000   1.0000   1.0000   1.0000   1.0000   1.0000   1.0000
     0.0000   0.0000   0.0000   0.0000   0.0000   0.0000   0.0000   0.0000
     0.0000   0.0000   0.0000   0.0000

          k =-0.3268 0.5660 0.0000 (  7112 PWs)   bands (ev):

   -16.0405 -13.4173 -13.1409 -11.1008 -10.1053  -9.2458  -2.0249  -0.9872
    -0.6248   2.6582   9.6639  10.0495  11.0253  11.7901  12.3826  12.4534
    13.1978  13.3778  13.9730  14.2244

     occupation numbers 
     1.0000   1.0000   1.0000   1.0000   1.0000   1.0000   1.0000   1.0000
     0.0000   0.0000   0.0000   0.0000   0.0000   0.0000   0.0000   0.0000
     0.0000   0.0000   0.0000   0.0000

          k =-0.3333 0.5774 0.0000 (  7104 PWs)   bands (ev):

   -16.0364 -13.2763 -13.2698 -11.1188 -10.0984  -9.2620  -2.0169  -0.8190
    -0.7933   2.6536   9.6581  10.0441  11.0495  11.8118  12.3870  12.4869
    13.2928  13.3146  14.0529  14.2045

     occupation numbers 
     1.0000   1.0000   1.0000   1.0000   1.0000   1.0000   1.0000   0.9739
     0.0261   0.0000   0.0000   0.0000   0.0000   0.0000   0.0000   0.0000
     0.0000   0.0000   0.0000   0.0000

          k =-0.3252 0.5774 0.0000 (  7104 PWs)   bands (ev):

   -16.0379 -13.3529 -13.1985 -11.1113 -10.1016  -9.2553  -2.0198  -0.9161
    -0.6962   2.6552   9.6605  10.0463  11.0420  11.8023  12.3835  12.4756
    13.2432  13.3485  14.0343  14.2048

     occupation numbers 
     1.0000   1.0000   1.0000   1.0000   1.0000   1.0000   1.0000   1.0000
     0.0000   0.0000   0.0000   0.0000   0.0000   0.0000   0.0000   0.0000
     0.0000   0.0000   0.0000   0.0000

          k =-0.3171 0.5774 0.0000 (  7112 PWs)   bands (ev):

   -16.0423 -13.4306 -13.1374 -11.0879 -10.1115  -9.2351  -2.0280  -1.0225
    -0.5903   2.6595   9.6681  10.0531  11.0215  11.7746  12.3657  12.4470
    13.1787  13.3633  13.9914  14.1910

     occupation numbers 
     1.0000   1.0000   1.0000   1.0000   1.0000   1.0000   1.0000   1.0000
     0.0000   0.0000   0.0000   0.0000   0.0000   0.0000   0.0000   0.0000
     0.0000   0.0000   0.0000   0.0000

          k =-0.3089 0.5774 0.0000 (  7118 PWs)   bands (ev):

   -16.0493 -13.5064 -13.0900 -11.0481 -10.1281  -9.2016  -2.0411  -1.1265
    -0.4874   2.6662   9.6809  10.0646  10.9909  11.7316  12.3211  12.4111
    13.1105  13.3487  13.9337  14.1432

     occupation numbers 
     1.0000   1.0000   1.0000   1.0000   1.0000   1.0000   1.0000   1.0000
     0.0000   0.0000   0.0000   0.0000   0.0000   0.0000   0.0000   0.0000
     0.0000   0.0000   0.0000   0.0000

          k =-0.3008 0.5774 0.0000 (  7122 PWs)   bands (ev):

   -16.0588 -13.5804 -13.0564 -10.9921 -10.1507  -9.1560  -2.0585  -1.2279
    -0.3878   2.6747   9.6992  10.0807  10.9522  11.6767  12.2452  12.3711
    13.0404  13.3087  13.8674  14.0680

     occupation numbers 
     1.0000   1.0000   1.0000   1.0000   1.0000   1.0000   1.0000   1.0000
     0.0000   0.0000   0.0000   0.0000   0.0000   0.0000   0.0000   0.0000
     0.0000   0.0000   0.0000   0.0000

          k =-0.2927 0.5774 0.0000 (  7118 PWs)   bands (ev):

   -16.0704 -13.6523 -13.0359 -10.9205 -10.1782  -9.0994  -2.0798  -1.3268
    -0.2919   2.6845   9.7230  10.1012  10.9066  11.6128  12.1427  12.3241
    12.9700  13.2485  13.7962  13.9813

     occupation numbers 
     1.0000   1.0000   1.0000   1.0000   1.0000   1.0000   1.0000   1.0000
     0.0000   0.0000   0.0000   0.0000   0.0000   0.0000   0.0000   0.0000
     0.0000   0.0000   0.0000   0.0000

          k =-0.2846 0.5774 0.0000 (  7104 PWs)   bands (ev):

   -16.0841 -13.7223 -13.0274 -10.8347 -10.2096  -9.0334  -2.1044  -1.4229
    -0.1999   2.6952   9.7522  10.1258  10.8551  11.5422  12.0184  12.2697
    12.9003  13.1728  13.7206  13.8902

     occupation numbers 
     1.0000   1.0000   1.0000   1.0000   1.0000   1.0000   1.0000   1.0000
     0.0000   0.0000   0.0000   0.0000   0.0000   0.0000   0.0000   0.0000
     0.0000   0.0000   0.0000   0.0000

          k =-0.2764 0.5774 0.0000 (  7102 PWs)   bands (ev):

   -16.0996 -13.7904 -13.0292 -10.7365 -10.2437  -8.9594  -2.1321  -1.5165
    -0.1119   2.7063   9.7865  10.1539  10.7982  11.4658  11.8766  12.2095
    12.8321  13.0849  13.6415  13.7975

     occupation numbers 
     1.0000   1.0000   1.0000   1.0000   1.0000   1.0000   1.0000   1.0000
     0.0000   0.0000   0.0000   0.0000   0.0000   0.0000   0.0000   0.0000
     0.0000   0.0000   0.0000   0.0000

          k =-0.2683 0.5774 0.0000 (  7090 PWs)   bands (ev):

   -16.1166 -13.8566 -13.0397 -10.6274 -10.2798  -8.8784  -2.1623  -1.6072
    -0.0281   2.7175   9.8257  10.1843  10.7363  11.3843  11.7224  12.1455
    12.7659  12.9880  13.5593  13.7038

     occupation numbers 
     1.0000   1.0000   1.0000   1.0000   1.0000   1.0000   1.0000   1.0000
     0.0000   0.0000   0.0000   0.0000   0.0000   0.0000   0.0000   0.0000
     0.0000   0.0000   0.0000   0.0000

          k =-0.2602 0.5774 0.0000 (  7094 PWs)   bands (ev):

   -16.1351 -13.9208 -13.0574 -10.5095 -10.3171  -8.7916  -2.1947  -1.6953
     0.0514   2.7285   9.8692  10.2153  10.6699  11.2959  11.5627  12.0794
    12.7015  12.8852  13.4761  13.6101

     occupation numbers 
     1.0000   1.0000   1.0000   1.0000   1.0000   1.0000   1.0000   1.0000
     0.0000   0.0000   0.0000   0.0000   0.0000   0.0000   0.0000   0.0000
     0.0000   0.0000   0.0000   0.0000

          k =-0.2520 0.5774 0.0000 (  7094 PWs)   bands (ev):

   -16.1547 -13.9831 -13.0806 -10.3846 -10.3546  -8.6999  -2.2290  -1.7806
     0.1266   2.7390   9.9164  10.2434  10.6002  11.1962  11.4081  12.0123
    12.6369  12.7810  13.3928  13.5162

     occupation numbers 
     1.0000   1.0000   1.0000   1.0000   1.0000   1.0000   1.0000   1.0000
     0.0000   0.0000   0.0000   0.0000   0.0000   0.0000   0.0000   0.0000
     0.0000   0.0000   0.0000   0.0000

          k =-0.2439 0.5774 0.0000 (  7094 PWs)   bands (ev):

   -16.1753 -14.0434 -13.1082 -10.3936 -10.2525  -8.6040  -2.2648  -1.8631
     0.1975   2.7488   9.9663  10.2611  10.5309  11.0776  11.2731  11.9455
    12.5655  12.6841  13.3102  13.4230

     occupation numbers 
     1.0000   1.0000   1.0000   1.0000   1.0000   1.0000   1.0000   1.0000
     0.0000   0.0000   0.0000   0.0000   0.0000   0.0000   0.0000   0.0000
     0.0000   0.0000   0.0000   0.0000

          k =-0.2358 0.5774 0.0000 (  7094 PWs)   bands (ev):

   -16.1966 -14.1017 -13.1391 -10.4317 -10.1165  -8.5046  -2.3019  -1.9427
     0.2641   2.7577  10.0172  10.2504  10.4730  10.9435  11.1638  11.8797
    12.4761  12.6080  13.2298  13.3315

     occupation numbers 
     1.0000   1.0000   1.0000   1.0000   1.0000   1.0000   1.0000   1.0000
     0.0000   0.0000   0.0000   0.0000   0.0000   0.0000   0.0000   0.0000
     0.0000   0.0000   0.0000   0.0000

          k =-0.2276 0.5774 0.0000 (  7086 PWs)   bands (ev):

   -16.2186 -14.1581 -13.1723 -10.4695  -9.9768  -8.4024  -2.3399  -2.0193
     0.3265   2.7656  10.0664  10.1888  10.4375  10.8168  11.0723  11.8157
    12.3689  12.5543  13.1522  13.2422

     occupation numbers 
     1.0000   1.0000   1.0000   1.0000   1.0000   1.0000   1.0000   1.0000
     0.0000   0.0000   0.0000   0.0000   0.0000   0.0000   0.0000   0.0000
     0.0000   0.0000   0.0000   0.0000

          k =-0.2195 0.5774 0.0000 (  7096 PWs)   bands (ev):

   -16.2411 -14.2125 -13.2072 -10.5067  -9.8346  -8.2980  -2.3788  -2.0930
     0.3845   2.7724  10.0743  10.1115  10.4054  10.7282  10.9908  11.7543
    12.2539  12.5145  13.0778  13.1552

     occupation numbers 
     1.0000   1.0000   1.0000   1.0000   1.0000   1.0000   1.0000   1.0000
     0.0000   0.0000   0.0000   0.0000   0.0000   0.0000   0.0000   0.0000
     0.0000   0.0000   0.0000   0.0000

          k =-0.2114 0.5774 0.0000 (  7114 PWs)   bands (ev):

   -16.2639 -14.2650 -13.2431 -10.5431  -9.6905  -8.1917  -2.4183  -2.1637
     0.4385   2.7781   9.9295  10.1297  10.3635  10.6942  10.9158  11.6963
    12.1373  12.4841  13.0076  13.0714

     occupation numbers 
     1.0000   1.0000   1.0000   1.0000   1.0000   1.0000   1.0000   1.0000
     0.0000   0.0000   0.0000   0.0000   0.0000   0.0000   0.0000   0.0000
     0.0000   0.0000   0.0000   0.0000

          k =-0.2033 0.5774 0.0000 (  7122 PWs)   bands (ev):

   -16.2868 -14.3155 -13.2795 -10.5787  -9.5452  -8.0842  -2.4584  -2.2310
     0.4884   2.7826   9.7590  10.0992  10.3453  10.6980  10.8469  11.6428
    12.0222  12.4607  12.9425  12.9908

     occupation numbers 
     1.0000   1.0000   1.0000   1.0000   1.0000   1.0000   1.0000   1.0000
     0.0000   0.0000   0.0000   0.0000   0.0000   0.0000   0.0000   0.0000
     0.0000   0.0000   0.0000   0.0000

          k =-0.1951 0.5774 0.0000 (  7132 PWs)   bands (ev):

   -16.3098 -14.3640 -13.3161 -10.6133  -9.3994  -7.9759  -2.4988  -2.2952
     0.5344   2.7859   9.5730  10.0191  10.3627  10.7117  10.7897  11.5951
    11.9105  12.4424  12.8828  12.9141

     occupation numbers 
     1.0000   1.0000   1.0000   1.0000   1.0000   1.0000   1.0000   1.0000
     0.0000   0.0000   0.0000   0.0000   0.0000   0.0000   0.0000   0.0000
     0.0000   0.0000   0.0000   0.0000

          k =-0.1870 0.5774 0.0000 (  7136 PWs)   bands (ev):

   -16.3326 -14.4106 -13.3525 -10.6468  -9.2536  -7.8672  -2.5396  -2.3558
     0.5767   2.7882   9.3780   9.9159  10.3931  10.6911  10.7760  11.5544
    11.8036  12.4272  12.8266  12.8455

     occupation numbers 
     1.0000   1.0000   1.0000   1.0000   1.0000   1.0000   1.0000   1.0000
     0.0000   0.0000   0.0000   0.0000   0.0000   0.0000   0.0000   0.0000
     0.0000   0.0000   0.0000   0.0000

          k =-0.1789 0.5774 0.0000 (  7148 PWs)   bands (ev):

   -16.3552 -14.4552 -13.3884 -10.6792  -9.1086  -7.7587  -2.5806  -2.4129
     0.6155   2.7894   9.1786   9.8029  10.4236  10.6388  10.7969  11.5225
    11.7030  12.4121  12.7627  12.7980

     occupation numbers 
     1.0000   1.0000   1.0000   1.0000   1.0000   1.0000   1.0000   1.0000
     0.0000   0.0000   0.0000   0.0000   0.0000   0.0000   0.0000   0.0000
     0.0000   0.0000   0.0000   0.0000

          k =-0.1707 0.5774 0.0000 (  7142 PWs)   bands (ev):

   -16.3775 -14.4978 -13.4236 -10.7103  -8.9647  -7.6506  -2.6218  -2.4663
     0.6508   2.7896   8.9780   9.6845  10.4492  10.5839  10.8190  11.4999
    11.6107  12.3943  12.6967  12.7681

     occupation numbers 
     1.0000   1.0000   1.0000   1.0000   1.0000   1.0000   1.0000   1.0000
     0.0000   0.0000   0.0000   0.0000   0.0000   0.0000   0.0000   0.0000
     0.0000   0.0000   0.0000   0.0000

          k =-0.1626 0.5774 0.0000 (  7138 PWs)   bands (ev):

   -16.3993 -14.5385 -13.4579 -10.7402  -8.8225  -7.5435  -2.6631  -2.5160
     0.6830   2.7889   8.7782   9.5628  10.4675  10.5317  10.8344  11.4769
    11.5384  12.3716  12.6332  12.7517

     occupation numbers 
     1.0000   1.0000   1.0000   1.0000   1.0000   1.0000   1.0000   1.0000
     0.0000   0.0000   0.0000   0.0000   0.0000   0.0000   0.0000   0.0000
     0.0000   0.0000   0.0000   0.0000

          k =-0.1545 0.5774 0.0000 (  7150 PWs)   bands (ev):

   -16.4206 -14.5771 -13.4912 -10.7688  -8.6826  -7.4378  -2.7043  -2.5621
     0.7121   2.7874   8.5809   9.4389  10.4676  10.4934  10.8404  11.4186
    11.5219  12.3434  12.5730  12.7471

     occupation numbers 
     1.0000   1.0000   1.0000   1.0000   1.0000   1.0000   1.0000   1.0000
     0.0000   0.0000   0.0000   0.0000   0.0000   0.0000   0.0000   0.0000
     0.0000   0.0000   0.0000   0.0000

          k =-0.1463 0.5774 0.0000 (  7154 PWs)   bands (ev):

   -16.4412 -14.6138 -13.5233 -10.7961  -8.5454  -7.3339  -2.7451  -2.6047
     0.7383   2.7853   8.3873   9.3141  10.4269  10.4922  10.8368  11.3467
    11.5382  12.3106  12.5166  12.7516

     occupation numbers 
     1.0000   1.0000   1.0000   1.0000   1.0000   1.0000   1.0000   1.0000
     0.0000   0.0000   0.0000   0.0000   0.0000   0.0000   0.0000   0.0000
     0.0000   0.0000   0.0000   0.0000

          k =-0.1382 0.5774 0.0000 (  7146 PWs)   bands (ev):

   -16.4612 -14.6485 -13.5540 -10.8220  -8.4114  -7.2323  -2.7852  -2.6440
     0.7620   2.7825   8.1986   9.1894  10.3822  10.4919  10.8247  11.2778
    11.5679  12.2750  12.4638  12.7618

     occupation numbers 
     1.0000   1.0000   1.0000   1.0000   1.0000   1.0000   1.0000   1.0000
     0.0000   0.0000   0.0000   0.0000   0.0000   0.0000   0.0000   0.0000
     0.0000   0.0000   0.0000   0.0000

          k =-0.1301 0.5774 0.0000 (  7150 PWs)   bands (ev):

   -16.4803 -14.6813 -13.5834 -10.8465  -8.2812  -7.1334  -2.8242  -2.6804
     0.7831   2.7792   8.0154   9.0657  10.3395  10.4873  10.8065  11.2139
    11.6052  12.2383  12.4150  12.7748

     occupation numbers 
     1.0000   1.0000   1.0000   1.0000   1.0000   1.0000   1.0000   1.0000
     0.0000   0.0000   0.0000   0.0000   0.0000   0.0000   0.0000   0.0000
     0.0000   0.0000   0.0000   0.0000

          k =-0.1220 0.5774 0.0000 (  7150 PWs)   bands (ev):

   -16.4986 -14.7120 -13.6113 -10.8696  -8.1552  -7.0376  -2.8619  -2.7139
     0.8020   2.7756   7.8389   8.9442  10.2993  10.4788  10.7843  11.1553
    11.6462  12.2016  12.3703  12.7881

     occupation numbers 
     1.0000   1.0000   1.0000   1.0000   1.0000   1.0000   1.0000   1.0000
     0.0000   0.0000   0.0000   0.0000   0.0000   0.0000   0.0000   0.0000
     0.0000   0.0000   0.0000   0.0000

          k =-0.1138 0.5774 0.0000 (  7146 PWs)   bands (ev):

   -16.5160 -14.7408 -13.6377 -10.8913  -8.0339  -6.9454  -2.8978  -2.7449
     0.8188   2.7716   7.6695   8.8257  10.2617  10.4672  10.7601  11.1018
    11.6880  12.1659  12.3300  12.8002

     occupation numbers 
     1.0000   1.0000   1.0000   1.0000   1.0000   1.0000   1.0000   1.0000
     0.0000   0.0000   0.0000   0.0000   0.0000   0.0000   0.0000   0.0000
     0.0000   0.0000   0.0000   0.0000

          k =-0.1057 0.5774 0.0000 (  7148 PWs)   bands (ev):

   -16.5325 -14.7676 -13.6624 -10.9115  -7.9179  -6.8572  -2.9318  -2.7734
     0.8336   2.7675   7.5082   8.7112  10.2266  10.4532  10.7352  11.0530
    11.7279  12.1318  12.2946  12.8101

     occupation numbers 
     1.0000   1.0000   1.0000   1.0000   1.0000   1.0000   1.0000   1.0000
     0.0000   0.0000   0.0000   0.0000   0.0000   0.0000   0.0000   0.0000
     0.0000   0.0000   0.0000   0.0000

          k =-0.0976 0.5774 0.0000 (  7156 PWs)   bands (ev):

   -16.5479 -14.7924 -13.6855 -10.9303  -7.8077  -6.7734  -2.9639  -2.7997
     0.8466   2.7632   7.3556   8.6015  10.1942  10.4376  10.7106  11.0088
    11.7639  12.0999  12.2644  12.8178

     occupation numbers 
     1.0000   1.0000   1.0000   1.0000   1.0000   1.0000   1.0000   1.0000
     0.0000   0.0000   0.0000   0.0000   0.0000   0.0000   0.0000   0.0000
     0.0000   0.0000   0.0000   0.0000

          k =-0.0894 0.5774 0.0000 (  7156 PWs)   bands (ev):

   -16.5622 -14.8153 -13.7069 -10.9476  -7.7040  -6.6944  -2.9936  -2.8237
     0.8581   2.7590   7.2123   8.4974  10.1644  10.4210  10.6871  10.9689
    11.7945  12.0704  12.2400  12.8223

     occupation numbers 
     1.0000   1.0000   1.0000   1.0000   1.0000   1.0000   1.0000   1.0000
     0.0000   0.0000   0.0000   0.0000   0.0000   0.0000   0.0000   0.0000
     0.0000   0.0000   0.0000   0.0000

          k =-0.0813 0.5774 0.0000 (  7148 PWs)   bands (ev):

   -16.5755 -14.8361 -13.7265 -10.9635  -7.6069  -6.6206  -3.0210  -2.8456
     0.8681   2.7548   7.0791   8.3999  10.1371  10.4042  10.6649  10.9331
    11.8184  12.0435  12.2217  12.8247

     occupation numbers 
     1.0000   1.0000   1.0000   1.0000   1.0000   1.0000   1.0000   1.0000
     0.0000   0.0000   0.0000   0.0000   0.0000   0.0000   0.0000   0.0000
     0.0000   0.0000   0.0000   0.0000

          k =-0.0732 0.5774 0.0000 (  7138 PWs)   bands (ev):

   -16.5875 -14.8550 -13.7443 -10.9778  -7.5172  -6.5525  -3.0459  -2.8653
     0.8767   2.7508   6.9563   8.3094  10.1125  10.3876  10.6446  10.9011
    11.8352  12.0194  12.2096  12.8254

     occupation numbers 
     1.0000   1.0000   1.0000   1.0000   1.0000   1.0000   1.0000   1.0000
     0.0000   0.0000   0.0000   0.0000   0.0000   0.0000   0.0000   0.0000
     0.0000   0.0000   0.0000   0.0000

          k =-0.0650 0.5774 0.0000 (  7146 PWs)   bands (ev):

   -16.5984 -14.8719 -13.7604 -10.9907  -7.4355  -6.4905  -3.0683  -2.8830
     0.8841   2.7471   6.8448   8.2266  10.0904  10.3716  10.6261  10.8728
    11.8451  11.9980  12.2033  12.8242

     occupation numbers 
     1.0000   1.0000   1.0000   1.0000   1.0000   1.0000   1.0000   1.0000
     0.0000   0.0000   0.0000   0.0000   0.0000   0.0000   0.0000   0.0000
     0.0000   0.0000   0.0000   0.0000

          k =-0.0569 0.5774 0.0000 (  7146 PWs)   bands (ev):

   -16.6081 -14.8868 -13.7746 -11.0020  -7.3620  -6.4348  -3.0882  -2.8986
     0.8903   2.7436   6.7449   8.1522  10.0710  10.3568  10.6097  10.8481
    11.8492  11.9793  12.2017  12.8219

     occupation numbers 
     1.0000   1.0000   1.0000   1.0000   1.0000   1.0000   1.0000   1.0000
     0.0000   0.0000   0.0000   0.0000   0.0000   0.0000   0.0000   0.0000
     0.0000   0.0000   0.0000   0.0000

          k =-0.0488 0.5774 0.0000 (  7138 PWs)   bands (ev):

   -16.6165 -14.8997 -13.7869 -11.0119  -7.2974  -6.3858  -3.1055  -2.9120
     0.8956   2.7404   6.6572   8.0866  10.0541  10.3434  10.5954  10.8269
    11.8490  11.9631  12.2036  12.8196

     occupation numbers 
     1.0000   1.0000   1.0000   1.0000   1.0000   1.0000   1.0000   1.0000
[...]

   -16.6395 -14.9344 -13.8203 -11.0385  -7.1185  -6.2505  -3.1523  -2.9483
     0.9087   2.7315   6.4159   7.9051  10.0086  10.3047  10.5565  10.7705
    11.8329  11.9196  12.2215  12.8059

     occupation numbers 
     1.0000   1.0000   1.0000   1.0000   1.0000   1.0000   1.0000   1.0000
     0.0000   0.0000   0.0000   0.0000   0.0000   0.0000   0.0000   0.0000
     0.0000   0.0000   0.0000   0.0000

          k = 0.0000 0.5774 0.0000 (  7116 PWs)   bands (ev):

   -16.6401 -14.9354 -13.8212 -11.0392  -7.1131  -6.2464  -3.1537  -2.9494
     0.9092   2.7312   6.4089   7.8998  10.0073  10.3036  10.5554  10.7689
    11.8322  11.9184  12.2223  12.8057

     occupation numbers 
     1.0000   1.0000   1.0000   1.0000   1.0000   1.0000   1.0000   1.0000
     0.0000   0.0000   0.0000   0.0000   0.0000   0.0000   0.0000   0.0000
     0.0000   0.0000   0.0000   0.0000

          k = 0.0000 0.5499 0.0000 (  7150 PWs)   bands (ev):

   -16.6748 -15.1278 -13.6091 -10.9862  -7.1002  -6.2346  -3.2791  -2.9570
     1.0057   2.8037   6.4159   7.8683   9.5268   9.9640  10.8549  11.1722
    11.3398  11.9600  12.1934  12.6195

     occupation numbers 
     1.0000   1.0000   1.0000   1.0000   1.0000   1.0000   1.0000   1.0000
     0.0000   0.0000   0.0000   0.0000   0.0000   0.0000   0.0000   0.0000
     0.0000   0.0000   0.0000   0.0000

          k = 0.0000 0.5224 0.0000 (  7144 PWs)   bands (ev):

   -16.7746 -15.5107 -13.1669 -10.8312  -7.0610  -6.1987  -3.5597  -3.0482
     1.2776   3.0110   6.4368   7.7572   8.9464   9.3948  10.4803  11.3037
    11.4871  11.7227  12.1114  12.8067

     occupation numbers 
     1.0000   1.0000   1.0000   1.0000   1.0000   1.0000   1.0000   1.0000
     0.0000   0.0000   0.0000   0.0000   0.0000   0.0000   0.0000   0.0000
     0.0000   0.0000   0.0000   0.0000

          k = 0.0000 0.4949 0.0000 (  7134 PWs)   bands (ev):

   -16.9289 -15.9309 -12.6482 -10.5855  -6.9960  -6.1394  -3.9170  -3.2387
     1.6847   3.3273   6.4705   7.5239   8.4007   8.9311   9.8418  10.8672
    10.9233  12.3056  12.3993  12.8435

     occupation numbers 
     1.0000   1.0000   1.0000   1.0000   1.0000   1.0000   1.0000   1.0000
     0.0000   0.0000   0.0000   0.0000   0.0000   0.0000   0.0000   0.0000
     0.0000   0.0000   0.0000   0.0000

          k = 0.0000 0.4674 0.0000 (  7147 PWs)   bands (ev):

   -17.1239 -16.3488 -12.0935 -10.2639  -6.9059  -6.0571  -4.3127  -3.5010
     2.1859   3.7221   6.5133   7.1575   7.8709   8.6109   9.2513  10.2597
    10.4651  11.9646  12.8465  13.1221

     occupation numbers 
     1.0000   1.0000   1.0000   1.0000   1.0000   1.0000   1.0000   1.0000
     0.0000   0.0000   0.0000   0.0000   0.0000   0.0000   0.0000   0.0000
     0.0000   0.0000   0.0000   0.0000

          k = 0.0000 0.4399 0.0000 (  7155 PWs)   bands (ev):

   -17.3464 -16.7523 -11.5156  -9.8809  -6.7911  -5.9525  -4.7232  -3.8070
     2.7495   4.1648   6.5247   6.7540   7.3526   8.3251   8.7711   9.6896
    10.0286  11.5181  12.4312  13.5579

     occupation numbers 
     1.0000   1.0000   1.0000   1.0000   1.0000   1.0000   1.0000   1.0000
     0.0000   0.0000   0.0000   0.0000   0.0000   0.0000   0.0000   0.0000
     0.0000   0.0000   0.0000   0.0000

          k = 0.0000 0.4124 0.0000 (  7149 PWs)   bands (ev):

   -17.5850 -17.1363 -10.9207  -9.4496  -6.6525  -5.8266  -5.1336  -4.1353
     3.3532   4.6233   6.1854   6.6892   6.8671   7.9104   8.4754   9.1655
     9.6484  11.0863  11.9242  13.7670

     occupation numbers 
     1.0000   1.0000   1.0000   1.0000   1.0000   1.0000   1.0000   1.0000
     0.0000   0.0000   0.0000   0.0000   0.0000   0.0000   0.0000   0.0000
     0.0000   0.0000   0.0000   0.0000

          k = 0.0000 0.3849 0.0000 (  7157 PWs)   bands (ev):

   -17.8311 -17.4978 -10.3133  -8.9814  -6.4913  -5.6807  -5.5341  -4.4707
     3.9789   5.0463   5.7316   6.4378   6.7695   7.4330   8.2232   8.7030
     9.3593  10.6828  11.4417  13.5321

     occupation numbers 
     1.0000   1.0000   1.0000   1.0000   1.0000   1.0000   1.0000   1.0000
     0.0000   0.0000   0.0000   0.0000   0.0000   0.0000   0.0000   0.0000
     0.0000   0.0000   0.0000   0.0000

          k = 0.0000 0.3574 0.0000 (  7147 PWs)   bands (ev):

   -18.0789 -17.8342  -9.6970  -8.4857  -6.3088  -5.9184  -5.5164  -4.8028
     4.6030   5.2220   5.3759   6.1950   6.8515   6.9793   7.9015   8.3196
     9.1766  10.3186  10.9927  13.2055

     occupation numbers 
     1.0000   1.0000   1.0000   1.0000   1.0000   1.0000   1.0000   1.0000
     0.0000   0.0000   0.0000   0.0000   0.0000   0.0000   0.0000   0.0000
     0.0000   0.0000   0.0000   0.0000

          k = 0.0000 0.3299 0.0000 (  7139 PWs)   bands (ev):

   -18.3252 -18.1426  -9.0759  -7.9715  -6.2818  -6.1072  -5.3358  -5.1244
     4.8409   5.0368   5.4184   6.2661   6.5506   6.9791   7.5285   8.0151
     9.0715  10.0077  10.5832  12.8768

     occupation numbers 
     1.0000   1.0000   1.0000   1.0000   1.0000   1.0000   1.0000   1.0000
     0.0000   0.0000   0.0000   0.0000   0.0000   0.0000   0.0000   0.0000
     0.0000   0.0000   0.0000   0.0000

          k = 0.0000 0.3024 0.0000 (  7139 PWs)   bands (ev):

   -18.5690 -18.4191  -8.4542  -7.4488  -6.6191  -5.8887  -5.4303  -5.1412
     4.4520   4.8165   5.9488   6.0778   6.5258   7.0935   7.1612   7.8087
     8.9975   9.7702  10.2226  12.5687

     occupation numbers 
     1.0000   1.0000   1.0000   1.0000   1.0000   1.0000   1.0000   1.0000
     0.0000   0.0000   0.0000   0.0000   0.0000   0.0000   0.0000   0.0000
     0.0000   0.0000   0.0000   0.0000

          k = 0.0000 0.2749 0.0000 (  7129 PWs)   bands (ev):

   -18.8083 -18.6623  -7.8369  -7.0127  -6.8405  -5.7166  -5.6560  -4.9355
     4.0904   4.4951   5.7023   6.4919   6.5881   6.8463   7.2093   7.7454
     8.9208   9.6225   9.9314  12.2924

     occupation numbers 
     1.0000   1.0000   1.0000   1.0000   1.0000   1.0000   1.0000   1.0000
     0.0000   0.0000   0.0000   0.0000   0.0000   0.0000   0.0000   0.0000
     0.0000   0.0000   0.0000   0.0000

          k = 0.0000 0.2474 0.0000 (  7123 PWs)   bands (ev):

   -19.0371 -18.8757  -7.2436  -7.2280  -6.3755  -5.9788  -5.4131  -4.7225
     3.7602   4.1823   5.3636   6.3775   6.4882   7.2124   7.2949   7.7668
     8.8298   9.5410   9.7616  12.0572

     occupation numbers 
     1.0000   1.0000   1.0000   1.0000   1.0000   1.0000   1.0000   1.0000
     0.0000   0.0000   0.0000   0.0000   0.0000   0.0000   0.0000   0.0000
     0.0000   0.0000   0.0000   0.0000

          k = 0.0000 0.2199 0.0000 (  7103 PWs)   bands (ev):

   -19.2485 -19.0639  -7.4991  -6.6400  -6.2279  -5.8546  -5.1644  -4.5065
     3.4625   3.8943   5.0577   6.1142   6.2751   7.3698   7.7037   7.8174
     8.7113   9.4878   9.7551  12.5700

     occupation numbers 
     1.0000   1.0000   1.0000   1.0000   1.0000   1.0000   1.0000   1.0000
     0.0000   0.0000   0.0000   0.0000   0.0000   0.0000   0.0000   0.0000
     0.0000   0.0000   0.0000   0.0000

          k = 0.0000 0.1925 0.0000 (  7139 PWs)   bands (ev):

   -19.4385 -19.2294  -7.7300  -6.4405  -6.0759  -5.3631  -4.9154  -4.2925
     3.1980   3.6361   4.7865   5.8563   6.0664   7.4297   7.6570   8.3073
     8.5630   9.4869   9.8331   9.9356

     occupation numbers 
     1.0000   1.0000   1.0000   1.0000   1.0000   1.0000   1.0000   1.0000
     0.0000   0.0000   0.0000   0.0000   0.0000   0.0000   0.0000   0.0000
     0.0000   0.0000   0.0000   0.0000

          k = 0.0000 0.1650 0.0000 (  7131 PWs)   bands (ev):

   -19.6049 -19.3732  -7.9318  -6.6283  -5.5469  -4.8989  -4.6724  -4.0861
     2.9672   3.4101   4.5507   5.6275   5.8711   7.4489   7.5695   8.3715
     8.8108   9.3364   9.5241   9.9160

     occupation numbers 
     1.0000   1.0000   1.0000   1.0000   1.0000   1.0000   1.0000   1.0000
     0.0000   0.0000   0.0000   0.0000   0.0000   0.0000   0.0000   0.0000
     0.0000   0.0000   0.0000   0.0000

          k = 0.0000 0.1375 0.0000 (  7157 PWs)   bands (ev):

   -19.7467 -19.4953  -8.1035  -6.7889  -5.0656  -4.4759  -4.4432  -3.8939
     2.7704   3.2176   4.3507   5.4317   5.6976   7.3756   7.5454   8.2115
     8.8025   9.2339   9.5784   9.9652

     occupation numbers 
     1.0000   1.0000   1.0000   1.0000   1.0000   1.0000   1.0000   1.0000
     0.0000   0.0000   0.0000   0.0000   0.0000   0.0000   0.0000   0.0000
     0.0000   0.0000   0.0000   0.0000

          k = 0.0000 0.1100 0.0000 (  7155 PWs)   bands (ev):

   -19.8632 -19.5956  -8.2446  -6.9212  -4.6437  -4.2366  -4.1056  -3.7228
     2.6081   3.0591   4.1866   5.2705   5.5509   7.2718   7.5397   8.0693
     8.3443   9.5549   9.6759   9.9772

     occupation numbers 
     1.0000   1.0000   1.0000   1.0000   1.0000   1.0000   1.0000   1.0000
     0.0000   0.0000   0.0000   0.0000   0.0000   0.0000   0.0000   0.0000
     0.0000   0.0000   0.0000   0.0000

          k = 0.0000 0.0825 0.0000 (  7175 PWs)   bands (ev):

   -19.9541 -19.6739  -8.3547  -7.0245  -4.2953  -4.0620  -3.8004  -3.5801
     2.4808   2.9353   4.0587   5.1444   5.4340   7.1804   7.5229   7.9535
     7.9726   9.6485   9.9154   9.9739

     occupation numbers 
     1.0000   1.0000   1.0000   1.0000   1.0000   1.0000   1.0000   1.0000
     0.0000   0.0000   0.0000   0.0000   0.0000   0.0000   0.0000   0.0000
     0.0000   0.0000   0.0000   0.0000

          k = 0.0000 0.0550 0.0000 (  7169 PWs)   bands (ev):

   -20.0191 -19.7300  -8.4335  -7.0986  -4.0340  -3.9287  -3.5720  -3.4723
     2.3891   2.8465   3.9671   5.0540   5.3492   7.1114   7.4996   7.6981
     7.8680   9.6909   9.9239   9.9408

     occupation numbers 
     1.0000   1.0000   1.0000   1.0000   1.0000   1.0000   1.0000   1.0000
     0.0000   0.0000   0.0000   0.0000   0.0000   0.0000   0.0000   0.0000
     0.0000   0.0000   0.0000   0.0000

          k = 0.0000 0.0275 0.0000 (  7161 PWs)   bands (ev):

   -20.0582 -19.7637  -8.4808  -7.1432  -3.8715  -3.8450  -3.4303  -3.4051
     2.3337   2.7931   3.9121   4.9996   5.2976   7.0688   7.4800   7.5294
     7.8155   9.7148   9.7737   9.9249

     occupation numbers 
     1.0000   1.0000   1.0000   1.0000   1.0000   1.0000   1.0000   1.0000
     0.0000   0.0000   0.0000   0.0000   0.0000   0.0000   0.0000   0.0000
     0.0000   0.0000   0.0000   0.0000

          k = 0.0000 0.0000 0.0000 (  7157 PWs)   bands (ev):

   -20.0713 -19.7749  -8.4965  -7.1581  -3.8165  -3.8164  -3.3823  -3.3823
     2.3152   2.7753   3.8937   4.9814   5.2804   7.0545   7.4724   7.4725
     7.7977   9.7231   9.7231   9.9189

     occupation numbers 
     1.0000   1.0000   1.0000   1.0000   1.0000   1.0000   1.0000   1.0000
     0.0000   0.0000   0.0000   0.0000   0.0000   0.0000   0.0000   0.0000
     0.0000   0.0000   0.0000   0.0000

     the Fermi energy is    -0.8073 ev

!    total energy              =     -50.86766080 Ry
     estimated scf accuracy    <       0.00000008 Ry
     smearing contrib. (-TS)   =       0.00000044 Ry
     internal energy E=F+TS    =     -50.86766124 Ry

     The total energy is F=E-TS. E is the sum of the following terms:
     one-electron contribution =    -531.22417471 Ry
     hartree contribution      =     269.68099246 Ry
     xc contribution           =     -17.32326413 Ry
     ewald contribution        =     227.99878515 Ry

     convergence has been achieved in  10 iterations


     -----------------------------------------------
     Non-local corr. energy    =       0.19868057 Ry
     -----------------------------------------------


     Forces acting on atoms (cartesian axes, Ry/au):

     atom    1 type  1   force =     0.00000000    0.00000000    0.00249905
     atom    2 type  2   force =     0.00000000    0.00000000   -0.00258951
     atom    3 type  1   force =     0.00000000    0.00000000    0.00085396
     atom    4 type  3   force =     0.00000000    0.00000000   -0.00076350
     The non-local contrib.  to forces
     atom    1 type  1   force =     0.00000000   -0.00000000    0.00221774
     atom    2 type  2   force =     0.00000000    0.00000000   -0.00113057
     atom    3 type  1   force =     0.00000000   -0.00000000    0.00042986
     atom    4 type  3   force =     0.00000000    0.00000000   -0.00245418
     The ionic contribution  to forces
     atom    1 type  1   force =     0.00000836   -0.00000483  -14.00029525
     atom    2 type  2   force =    -0.00000784    0.00000453   10.50135933
     atom    3 type  1   force =    -0.00000838    0.00000484  -13.99574368
     atom    4 type  3   force =     0.00000786   -0.00000454   17.49467960
     The local contribution  to forces
     atom    1 type  1   force =    -0.00000000    0.00000000   14.00048400
     atom    2 type  2   force =    -0.00000000   -0.00000000  -10.50315461
     atom    3 type  1   force =    -0.00000699    0.00000404   13.99604120
     atom    4 type  3   force =     0.00003359   -0.00001939  -17.49363209
     The core correction contribution to forces
     atom    1 type  1   force =    -0.00000000    0.00000000   -0.00020050
     atom    2 type  2   force =    -0.00000000    0.00000000    0.00006663
     atom    3 type  1   force =     0.00000053   -0.00000031   -0.00016593
     atom    4 type  3   force =    -0.00000138    0.00000080    0.00016982
     The Hubbard contrib.    to forces
     atom    1 type  1   force =     0.00000000    0.00000000    0.00000000
     atom    2 type  2   force =     0.00000000    0.00000000    0.00000000
     atom    3 type  1   force =     0.00000000    0.00000000    0.00000000
     atom    4 type  3   force =     0.00000000    0.00000000    0.00000000
     The SCF correction term to forces
     atom    1 type  1   force =     0.00000000   -0.00000000    0.00000000
     atom    2 type  2   force =    -0.00000000    0.00000000    0.00025640
     atom    3 type  1   force =    -0.00000000    0.00000000    0.00000000
     atom    4 type  3   force =     0.00000000   -0.00000000    0.00046003

     Total force =     0.002700     Total SCF correction =     0.000527
     SCF correction compared to forces is large: reduce conv_thr to get better values


     Computing stress (Cartesian axis) and pressure



     -----------------------------------------------
     Non-local corr. energy    =       0.19868057 Ry
     -----------------------------------------------

          total   stress  (Ry/bohr**3)                   (kbar)     P=       18.52
   0.00021578  -0.00000000   0.00000000           31.74       -0.00        0.00
  -0.00000000   0.00021578   0.00000000           -0.00       31.74        0.00
   0.00000000   0.00000000  -0.00005386            0.00        0.00       -7.92

     kinetic stress (kbar)   4715.70      0.00      0.00
                                0.00   4715.70      0.00
                                0.00      0.00   5135.00

     local   stress (kbar)-111963.49      0.00     -0.00
                                0.00-111963.49      0.00
                               -0.00      0.00 112960.60

     nonloc. stress (kbar)   -645.64      0.00      0.00
                                0.00   -645.64      0.00
                                0.00      0.00   -605.04

     hartree stress (kbar)  54376.22     -0.00     -0.00
                               -0.00  54376.22     -0.00
                               -0.00     -0.00 -53771.72

     exc-cor stress (kbar)   -425.34     -0.00      0.00
                               -0.00   -425.34     -0.00
                                0.00     -0.00   -477.88

     corecor stress (kbar)   -611.51      0.00      0.00
                                0.00   -611.51     -0.00
                                0.00     -0.00   -596.95

     ewald   stress (kbar)  54582.01     -0.01      0.00
                               -0.01  54582.01     -0.00
                                0.00     -0.00 -62681.20

     hubbard stress (kbar)      0.00      0.00      0.00
                                0.00      0.00      0.00
                                0.00      0.00      0.00

     DFT-D   stress (kbar)      0.00      0.00      0.00
                                0.00      0.00      0.00
                                0.00      0.00      0.00

     XDM     stress (kbar)      0.00      0.00      0.00
                                0.00      0.00      0.00
                                0.00      0.00      0.00

     dft-nl  stress (kbar)      3.80      0.00      0.00
                                0.00      3.80     -0.00
                                0.00     -0.00     29.27

     TS-vdW  stress (kbar)      0.00      0.00      0.00
                                0.00      0.00      0.00
                                0.00      0.00      0.00

     MDB     stress (kbar)      0.00      0.00      0.00
                                0.00      0.00      0.00
                                0.00      0.00      0.00

     3D-RISM stress (kbar)      0.00      0.00      0.00
                                0.00      0.00      0.00
                                0.00      0.00      0.00


     Writing all to output data dir ./tmp/CBN2L_AB_PBE_vdW.save/

     init_run     :     11.34s CPU     11.49s WALL (       1 calls)
     electrons    :     50.43s CPU     48.06s WALL (       1 calls)
     forces       :      0.54s CPU      0.56s WALL (       1 calls)
     stress       :      3.42s CPU      3.51s WALL (       1 calls)

     Called by init_run:
     wfcinit      :      1.31s CPU      1.31s WALL (       1 calls)
     wfcinit:atom :      0.03s CPU      0.03s WALL (     114 calls)
     wfcinit:wfcr :      1.21s CPU      1.21s WALL (     114 calls)
     potinit      :      9.65s CPU      9.78s WALL (       1 calls)
     hinit0       :      0.33s CPU      0.34s WALL (       1 calls)

     Called by electrons:
     c_bands      :     45.11s CPU     42.47s WALL (      10 calls)
     sum_band     :      4.75s CPU      4.92s WALL (      10 calls)
     v_of_rho     :     10.12s CPU     10.30s WALL (      11 calls)
     v_h          :      0.01s CPU      0.01s WALL (      11 calls)
     v_xc         :     10.22s CPU     10.42s WALL (      13 calls)
     mix_rho      :      0.02s CPU      0.06s WALL (      10 calls)
     vdW_kernel   :      9.52s CPU      9.63s WALL (       1 calls)

     Called by c_bands:
     init_us_2    :      0.76s CPU      0.78s WALL (    2622 calls)
     init_us_2:cp :      0.76s CPU      0.77s WALL (    2622 calls)
     cegterg      :     43.86s CPU     41.14s WALL (    1140 calls)

     Called by sum_band:
     sum_band:wei :      0.02s CPU      0.02s WALL (      10 calls)
     sum_band:loo :      4.71s CPU      4.88s WALL (      10 calls)
     sum_band:buf :      0.16s CPU      0.16s WALL (    1140 calls)
     sum_band:ini :      0.32s CPU      0.32s WALL (    1140 calls)

     Called by *egterg:
     cdiaghg      :      2.94s CPU      3.03s WALL (    5679 calls)
     cegterg:over :      4.26s CPU      3.16s WALL (    4539 calls)
     cegterg:upda :      2.83s CPU      2.21s WALL (    4539 calls)
     cegterg:last :      4.01s CPU      2.55s WALL (    2426 calls)
     h_psi        :     28.94s CPU     29.11s WALL (    5793 calls)
     g_psi        :      0.23s CPU      0.30s WALL (    4539 calls)

     Called by h_psi:
     h_psi:calbec :      2.47s CPU      2.47s WALL (    5793 calls)
     vloc_psi     :     23.21s CPU     24.16s WALL (    5793 calls)
     add_vuspsi   :      2.91s CPU      2.08s WALL (    5793 calls)

     General routines
     calbec       :      2.93s CPU      2.93s WALL (    6363 calls)
     fft          :      0.45s CPU      0.47s WALL (     828 calls)
     ffts         :      0.00s CPU      0.00s WALL (      10 calls)
     fftw         :     23.65s CPU     24.54s WALL (  146184 calls)

     Parallel routines

     PWSCF        :   1m 6.18s CPU   1m 4.25s WALL


   This run was terminated on:  20:19:40  18Apr2024            

=------------------------------------------------------------------------------=
   JOB DONE.
=------------------------------------------------------------------------------=
