
     Program PROJWFC v.7.2 starts on 18Apr2024 at 15:51:42 

     This program is part of the open-source Quantum ESPRESSO suite
     for quantum simulation of materials; please cite
         "P. Giannozzi et al., J. Phys.:Condens. Matter 21 395502 (2009);
         "P. Giannozzi et al., J. Phys.:Condens. Matter 29 465901 (2017);
         "P. Giannozzi et al., J. Chem. Phys. 152 154105 (2020);
          URL http://www.quantum-espresso.org", 
     in publications or presentations arising from this work. More details at
     http://www.quantum-espresso.org/quote

     Parallel version (MPI & OpenMP), running on       8 processor cores
     Number of MPI processes:                 8
     Threads/MPI process:                     1

     MPI processes distributed on     1 nodes
     R & G space division:  proc/nbgrp/npool/nimage =       8
     0 MiB available memory on the printing compute node when the environment starts


     Reading xml data from directory:

     ./tmp/CBN2L_AB_PBE_vdW.save/

     IMPORTANT: XC functional enforced from input :
     Exchange-correlation= VDW-DF2-B86R
                           (   1   4  26   0   2   0   0)
     Any further DFT definition will be discarded
     Please, verify this is what you really want


     Parallelization info
     --------------------
     sticks:   dense  smooth     PW     G-vecs:    dense   smooth      PW
     Min          53      53     15                 7137     7137    1187
     Max          55      55     18                 7150     7150    1218
     Sum         433     433    127                57141    57141    9537

     Using Slab Decomposition



     %%%%%%%%%%%%%%%%%%%%%%%%%%%%%%%%%%%%%%%%%%%%%%%%%%%%%%%%%%%%%%%%%%%%%%%%
     %                                                                      %
     % You are using vdW-DF, which was implemented by the Thonhauser group. %
     % Please cite the following two papers that made this development      %
     % possible and the two reviews that describe the various versions:     %
     %                                                                      %
     %   T. Thonhauser et al., PRL 115, 136402 (2015).                      %
     %   T. Thonhauser et al., PRB 76, 125112 (2007).                       %
     %   K. Berland et al., Rep. Prog. Phys. 78, 066501 (2015).             %
     %   D.C. Langreth et al., J. Phys.: Condens. Matter 21, 084203 (2009). %
     %                                                                      %
     % If you are calculating stress with vdW-DF, please also cite:         %
     %                                                                      %
     %   R. Sabatini et al., J. Phys.: Condens. Matter 24, 424209 (2012).   %
     %                                                                      %
     %%%%%%%%%%%%%%%%%%%%%%%%%%%%%%%%%%%%%%%%%%%%%%%%%%%%%%%%%%%%%%%%%%%%%%%%

     %%%%%%%%%%%%%%%%%%%%%%%%%%%%%%%%%%%%%%%%%%%%%%%%%%%%%%%%%%%%%%%%%%%%%%%%
     %                                                                      %
     %  vdW-DF NEWS:                                                        %
     %                                                                      %
     %  * vdW-DF3 is now available. DOI: 10.1021/acs.jctc.0c00471           %
     %    use with input_dft = 'vdW-DF3-opt1' or 'vdW-DF3-opt2'             %
     %                                                                      %
     %  * Unscreened and range-separated hybrid vdW-DF-cx functionals       %
     %    DOI: 10.1063/1.4986522 and 10.1088/1361-648X/ac2ad2               %
     %    use with input_dft = 'vdW-DF-cx0'    and 'vdW-DF-ahcx'            %
     %  * Unscreened and range-separated hybrid vdW-DF2-b86r functionals    %
     %    DOI: 10.1063/1.4986522 and DOI: 10.1103/PhysRevX.12.041003        %
     %    use with input_dft = 'vdW-DF2-br0' and 'vdW-DF2-ahbr'             %
     %                                                                      %
     %%%%%%%%%%%%%%%%%%%%%%%%%%%%%%%%%%%%%%%%%%%%%%%%%%%%%%%%%%%%%%%%%%%%%%%%



     Gaussian broadening (read from file): ngauss,degauss=  -1    0.005000


     Calling projwave .... 
     Subspace diagonalization in iterative solution of the eigenvalue problem:
     one sub-group per band group will be used
     ELPA distributed-memory algorithm (size of sub-group:  2*  2 procs)

     linear algebra parallelized on   4 procs

  Problem Sizes 
  natomwfc =           16
  nx       =            8
  nbnd     =           20
  nkstot   =          331
  npwx     =          930
  nkb      =           32


     Atomic states used for projection
     (read from pseudopotential files):

     state #   1: atom   1 (C  ), wfc  1 (l=0 m= 1)
     state #   2: atom   1 (C  ), wfc  2 (l=1 m= 1)
     state #   3: atom   1 (C  ), wfc  2 (l=1 m= 2)
     state #   4: atom   1 (C  ), wfc  2 (l=1 m= 3)
     state #   5: atom   2 (B  ), wfc  1 (l=0 m= 1)
     state #   6: atom   2 (B  ), wfc  2 (l=1 m= 1)
     state #   7: atom   2 (B  ), wfc  2 (l=1 m= 2)
     state #   8: atom   2 (B  ), wfc  2 (l=1 m= 3)
     state #   9: atom   3 (C  ), wfc  1 (l=0 m= 1)
     state #  10: atom   3 (C  ), wfc  2 (l=1 m= 1)
     state #  11: atom   3 (C  ), wfc  2 (l=1 m= 2)
     state #  12: atom   3 (C  ), wfc  2 (l=1 m= 3)
     state #  13: atom   4 (N  ), wfc  1 (l=0 m= 1)
     state #  14: atom   4 (N  ), wfc  2 (l=1 m= 1)
     state #  15: atom   4 (N  ), wfc  2 (l=1 m= 2)
     state #  16: atom   4 (N  ), wfc  2 (l=1 m= 3)

 k =   0.0000000000  0.0000000000  0.0000000000
==== e(   1) =   -20.17559 eV ==== 
     psi = 0.419*[#   9]+0.419*[#   1]+0.079*[#  13]+0.064*[#   5]+0.005*[#   6]
          
    |psi|^2 = 0.987
==== e(   2) =   -19.94310 eV ==== 
     psi = 0.480*[#  13]+0.368*[#   5]+0.072*[#   1]+0.072*[#   9]
    |psi|^2 = 0.993
==== e(   3) =    -8.59028 eV ==== 
     psi = 0.371*[#   2]+0.371*[#  10]+0.112*[#  14]+0.106*[#   6]+0.001*[#  13]
          
    |psi|^2 = 0.962
==== e(   4) =    -7.29708 eV ==== 
     psi = 0.442*[#  14]+0.308*[#   6]+0.110*[#  10]+0.109*[#   2]+0.002*[#   1]
          +0.002*[#   9]
    |psi|^2 = 0.973
==== e(   5) =    -3.93684 eV ==== 
     psi = 0.250*[#  11]+0.250*[#  12]+0.249*[#   3]+0.249*[#   4]
    |psi|^2 = 0.997
==== e(   6) =    -3.93678 eV ==== 
     psi = 0.250*[#  11]+0.250*[#  12]+0.249*[#   3]+0.249*[#   4]
    |psi|^2 = 0.997
==== e(   7) =    -3.58492 eV ==== 
     psi = 0.391*[#  15]+0.391*[#  16]+0.107*[#   7]+0.107*[#   8]
    |psi|^2 = 0.996
==== e(   8) =    -3.58487 eV ==== 
     psi = 0.391*[#  15]+0.391*[#  16]+0.107*[#   7]+0.107*[#   8]
    |psi|^2 = 0.996
==== e(   9) =     2.30354 eV ==== 
     psi = 0.106*[#   5]+0.055*[#  13]+0.017*[#   6]+0.003*[#  14]+0.002*[#   1]
          +0.002*[#   9]+0.001*[#  10]+0.001*[#   2]
    |psi|^2 = 0.187
==== e(  10) =     2.77612 eV ==== 
     psi = 0.073*[#   6]+0.024*[#   5]+0.018*[#  14]+0.014*[#  13]+0.007*[#   2]
          +0.006*[#  10]
    |psi|^2 = 0.142
==== e(  11) =     3.91267 eV ==== 
     psi = 0.020*[#   5]+0.011*[#  13]+0.002*[#   6]
    |psi|^2 = 0.034
==== e(  12) =     4.99701 eV ==== 
     psi = 0.023*[#   5]+0.014*[#  13]+0.008*[#   6]+0.003*[#  14]+0.001*[#   2]
          +0.001*[#  10]
    |psi|^2 = 0.051
==== e(  13) =     5.24946 eV ==== 
     psi = 0.078*[#   6]+0.070*[#   5]+0.043*[#  13]+0.029*[#  14]
    |psi|^2 = 0.221
==== e(  14) =     7.02224 eV ==== 
     psi = 0.123*[#   6]+0.058*[#  14]+0.016*[#   5]+0.012*[#  13]+0.002*[#   2]
          +0.001*[#  10]
    |psi|^2 = 0.213
==== e(  15) =     7.36889 eV ==== 
     psi = 0.238*[#   3]+0.238*[#   4]+0.238*[#  11]+0.238*[#  12]
    |psi|^2 = 0.952
==== e(  16) =     7.36896 eV ==== 
     psi = 0.238*[#   3]+0.238*[#   4]+0.238*[#  11]+0.238*[#  12]
    |psi|^2 = 0.952
==== e(  17) =     7.79453 eV ==== 
     psi = 0.032*[#   5]+0.024*[#   6]+0.022*[#  13]+0.016*[#  14]
    |psi|^2 = 0.096
==== e(  18) =     9.63283 eV ==== 
     psi = 0.376*[#   7]+0.376*[#   8]+0.099*[#  15]+0.099*[#  16]
    |psi|^2 = 0.950
==== e(  19) =     9.63289 eV ==== 
     psi = 0.376*[#   7]+0.376*[#   8]+0.099*[#  15]+0.099*[#  16]
    |psi|^2 = 0.950
==== e(  20) =     9.86349 eV ==== 
     psi = 0.129*[#   6]+0.114*[#  14]+0.007*[#   5]+0.006*[#  13]+0.004*[#   2]
          +0.001*[#   9]
    |psi|^2 = 0.261

 k =   0.0000000000  0.0192450090  0.0000000000
==== e(   1) =   -20.16926 eV ==== 
     psi = 0.418*[#   9]+0.417*[#   1]+0.079*[#  13]+0.064*[#   5]+0.005*[#   6]
          
    |psi|^2 = 0.987
==== e(   2) =   -19.93756 eV ==== 
     psi = 0.479*[#  13]+0.366*[#   5]+0.072*[#   1]+0.072*[#   9]
    |psi|^2 = 0.993
==== e(   3) =    -8.58258 eV ==== 
     psi = 0.371*[#   2]+0.371*[#  10]+0.112*[#  14]+0.106*[#   6]+0.001*[#  13]
          
    |psi|^2 = 0.962
==== e(   4) =    -7.28982 eV ==== 
     psi = 0.442*[#  14]+0.308*[#   6]+0.110*[#  10]+0.109*[#   2]+0.002*[#   1]
          +0.002*[#   9]
    |psi|^2 = 0.973
==== e(   5) =    -3.96378 eV ==== 
     psi = 0.249*[#  11]+0.249*[#  12]+0.249*[#   3]+0.249*[#   4]
    |psi|^2 = 0.997
==== e(   6) =    -3.95072 eV ==== 
     psi = 0.250*[#  11]+0.250*[#  12]+0.249*[#   3]+0.249*[#   4]
    |psi|^2 = 0.997
==== e(   7) =    -3.60824 eV ==== 
     psi = 0.391*[#  15]+0.391*[#  16]+0.107*[#   7]+0.107*[#   8]+0.001*[#   5]
          
    |psi|^2 = 0.996
==== e(   8) =    -3.59591 eV ==== 
     psi = 0.391*[#  15]+0.391*[#  16]+0.108*[#   7]+0.108*[#   8]
    |psi|^2 = 0.996
==== e(   9) =     2.31263 eV ==== 
     psi = 0.105*[#   5]+0.055*[#  13]+0.017*[#   6]+0.003*[#  14]+0.002*[#   1]
          +0.002*[#   9]+0.001*[#  10]+0.001*[#   2]
    |psi|^2 = 0.187
==== e(  10) =     2.78484 eV ==== 
     psi = 0.073*[#   6]+0.024*[#   5]+0.018*[#  14]+0.014*[#  13]+0.007*[#   2]
          +0.006*[#  10]
    |psi|^2 = 0.142
==== e(  11) =     3.92166 eV ==== 
     psi = 0.020*[#   5]+0.011*[#  13]+0.002*[#   6]
    |psi|^2 = 0.034
==== e(  12) =     5.00593 eV ==== 
     psi = 0.022*[#   5]+0.014*[#  13]+0.009*[#   6]+0.003*[#  14]+0.001*[#   2]
          +0.001*[#  10]
    |psi|^2 = 0.051
==== e(  13) =     5.25783 eV ==== 
     psi = 0.078*[#   6]+0.070*[#   5]+0.043*[#  13]+0.029*[#  14]
    |psi|^2 = 0.222
==== e(  14) =     7.02913 eV ==== 
     psi = 0.123*[#   6]+0.059*[#  14]+0.016*[#   5]+0.012*[#  13]+0.002*[#   2]
          +0.001*[#  10]
    |psi|^2 = 0.214
==== e(  15) =     7.37296 eV ==== 
     psi = 0.237*[#   3]+0.237*[#   4]+0.237*[#  11]+0.237*[#  12]+0.001*[#   1]
          +0.001*[#   9]
    |psi|^2 = 0.950
==== e(  16) =     7.39692 eV ==== 
     psi = 0.238*[#   3]+0.238*[#   4]+0.238*[#  11]+0.238*[#  12]
    |psi|^2 = 0.952
==== e(  17) =     7.80311 eV ==== 
     psi = 0.032*[#   5]+0.024*[#   6]+0.022*[#  13]+0.016*[#  14]
    |psi|^2 = 0.097
==== e(  18) =     9.62869 eV ==== 
     psi = 0.373*[#   7]+0.373*[#   8]+0.098*[#  15]+0.098*[#  16]+0.002*[#  13]
          
    |psi|^2 = 0.945
==== e(  19) =     9.65754 eV ==== 
     psi = 0.376*[#   7]+0.376*[#   8]+0.099*[#  15]+0.099*[#  16]
    |psi|^2 = 0.950
==== e(  20) =     9.86607 eV ==== 
     psi = 0.129*[#   6]+0.115*[#  14]+0.007*[#   5]+0.005*[#  13]+0.004*[#   2]
          +0.001*[#   9]
    |psi|^2 = 0.265

 k =   0.0000000000  0.0384900179  0.0000000000
==== e(   1) =   -20.15029 eV ==== 
     psi = 0.413*[#   9]+0.413*[#   1]+0.080*[#  13]+0.065*[#   5]+0.005*[#   6]
          +0.002*[#   3]+0.002*[#   4]+0.002*[#  11]+0.002*[#  12]
    |psi|^2 = 0.987
==== e(   2) =   -19.92097 eV ==== 
     psi = 0.475*[#  13]+0.359*[#   5]+0.073*[#   1]+0.073*[#   9]+0.004*[#   7]
          +0.004*[#   8]
    |psi|^2 = 0.993
==== e(   3) =    -8.55945 eV ==== 
     psi = 0.371*[#   2]+0.371*[#  10]+0.112*[#  14]+0.106*[#   6]+0.001*[#  13]
          
    |psi|^2 = 0.963
==== e(   4) =    -7.26808 eV ==== 
     psi = 0.442*[#  14]+0.308*[#   6]+0.110*[#  10]+0.109*[#   2]+0.002*[#   1]
          +0.002*[#   9]
    |psi|^2 = 0.974
==== e(   5) =    -4.04406 eV ==== 
     psi = 0.248*[#  11]+0.248*[#  12]+0.248*[#   3]+0.248*[#   4]+0.003*[#   1]
          +0.003*[#   9]
    |psi|^2 = 0.997
==== e(   6) =    -3.99229 eV ==== 
     psi = 0.249*[#  11]+0.249*[#  12]+0.249*[#   3]+0.249*[#   4]
    |psi|^2 = 0.997
==== e(   7) =    -3.67777 eV ==== 
     psi = 0.389*[#  15]+0.389*[#  16]+0.105*[#   7]+0.105*[#   8]+0.005*[#   5]
          +0.002*[#  13]
    |psi|^2 = 0.996
==== e(   8) =    -3.62880 eV ==== 
     psi = 0.390*[#  15]+0.390*[#  16]+0.109*[#   7]+0.109*[#   8]
    |psi|^2 = 0.996
==== e(   9) =     2.33985 eV ==== 
     psi = 0.101*[#   5]+0.055*[#  13]+0.017*[#   6]+0.003*[#   7]+0.003*[#   8]
          +0.003*[#  14]+0.002*[#   1]+0.002*[#   9]+0.002*[#  10]+0.001*[#   2]
          
    |psi|^2 = 0.189
==== e(  10) =     2.81096 eV ==== 
     psi = 0.072*[#   6]+0.023*[#   5]+0.018*[#  14]+0.014*[#  13]+0.006*[#   2]
          +0.006*[#  10]
    |psi|^2 = 0.143
==== e(  11) =     3.94862 eV ==== 
     psi = 0.019*[#   5]+0.011*[#  13]+0.002*[#   6]
    |psi|^2 = 0.034
==== e(  12) =     5.03264 eV ==== 
     psi = 0.022*[#   5]+0.014*[#  13]+0.009*[#   6]+0.003*[#  14]+0.001*[#   2]
          +0.001*[#  10]
    |psi|^2 = 0.051
==== e(  13) =     5.28286 eV ==== 
     psi = 0.078*[#   6]+0.068*[#   5]+0.043*[#  13]+0.029*[#  14]
    |psi|^2 = 0.223
==== e(  14) =     7.04969 eV ==== 
     psi = 0.125*[#   6]+0.059*[#  14]+0.015*[#   5]+0.011*[#  13]+0.002*[#   2]
          +0.001*[#  10]
    |psi|^2 = 0.217
==== e(  15) =     7.38403 eV ==== 
     psi = 0.234*[#   3]+0.234*[#   4]+0.233*[#  11]+0.233*[#  12]+0.005*[#   1]
          +0.005*[#   9]
    |psi|^2 = 0.945
==== e(  16) =     7.48000 eV ==== 
     psi = 0.238*[#   3]+0.238*[#   4]+0.238*[#  11]+0.238*[#  12]
    |psi|^2 = 0.952
==== e(  17) =     7.82873 eV ==== 
     psi = 0.032*[#   5]+0.024*[#   6]+0.022*[#  13]+0.016*[#  14]
    |psi|^2 = 0.100
==== e(  18) =     9.61629 eV ==== 
     psi = 0.363*[#   7]+0.363*[#   8]+0.094*[#  15]+0.094*[#  16]+0.009*[#  13]
          +0.003*[#   5]+0.002*[#   2]
    |psi|^2 = 0.930
==== e(  19) =     9.73103 eV ==== 
     psi = 0.374*[#   7]+0.374*[#   8]+0.100*[#  15]+0.100*[#  16]
    |psi|^2 = 0.950
==== e(  20) =     9.87324 eV ==== 
     psi = 0.131*[#   6]+0.117*[#  14]+0.008*[#   5]+0.005*[#   2]+0.005*[#  13]
          +0.002*[#   7]+0.002*[#   8]+0.002*[#  10]+0.001*[#   9]
    |psi|^2 = 0.275

 k =   0.0000000000  0.0577350269  0.0000000000
==== e(   1) =   -20.11871 eV ==== 
     psi = 0.405*[#   9]+0.405*[#   1]+0.083*[#  13]+0.065*[#   5]+0.005*[#   3]
          +0.005*[#   4]+0.005*[#  11]+0.005*[#  12]+0.004*[#   6]+0.002*[#   7]
          +0.002*[#   8]
    |psi|^2 = 0.986
==== e(   2) =   -19.89329 eV ==== 
     psi = 0.470*[#  13]+0.349*[#   5]+0.075*[#   1]+0.075*[#   9]+0.008*[#   7]
          +0.008*[#   8]+0.002*[#  15]+0.002*[#  16]
    |psi|^2 = 0.993
==== e(   3) =    -8.52089 eV ==== 
     psi = 0.372*[#   2]+0.371*[#  10]+0.112*[#  14]+0.106*[#   6]+0.001*[#  13]
          
    |psi|^2 = 0.963
==== e(   4) =    -7.23190 eV ==== 
     psi = 0.443*[#  14]+0.308*[#   6]+0.110*[#  10]+0.109*[#   2]+0.002*[#   1]
          +0.002*[#   9]
    |psi|^2 = 0.974
==== e(   5) =    -4.17544 eV ==== 
     psi = 0.246*[#  11]+0.246*[#  12]+0.246*[#   3]+0.246*[#   4]+0.006*[#   1]
          +0.006*[#   9]
    |psi|^2 = 0.997
==== e(   6) =    -4.05985 eV ==== 
     psi = 0.249*[#  11]+0.249*[#  12]+0.249*[#   3]+0.249*[#   4]
    |psi|^2 = 0.997
==== e(   7) =    -3.79169 eV ==== 
     psi = 0.388*[#  15]+0.388*[#  16]+0.102*[#   7]+0.102*[#   8]+0.010*[#   5]
          +0.005*[#  13]
    |psi|^2 = 0.996
==== e(   8) =    -3.68253 eV ==== 
     psi = 0.388*[#  15]+0.388*[#  16]+0.110*[#   7]+0.110*[#   8]
    |psi|^2 = 0.996
==== e(   9) =     2.38506 eV ==== 
     psi = 0.095*[#   5]+0.055*[#  13]+0.016*[#   6]+0.006*[#   7]+0.006*[#   8]
          +0.003*[#  14]+0.002*[#  10]+0.001*[#   1]+0.001*[#   2]+0.001*[#   9]
          
    |psi|^2 = 0.191
==== e(  10) =     2.85444 eV ==== 
     psi = 0.072*[#   6]+0.022*[#   5]+0.018*[#  14]+0.014*[#  13]+0.006*[#   2]
          +0.006*[#  10]+0.002*[#   7]+0.002*[#   8]
    |psi|^2 = 0.143
==== e(  11) =     3.99352 eV ==== 
     psi = 0.018*[#   5]+0.011*[#  13]+0.002*[#   6]
    |psi|^2 = 0.034
==== e(  12) =     5.07709 eV ==== 
     psi = 0.020*[#   5]+0.013*[#  13]+0.009*[#   6]+0.003*[#  14]+0.001*[#   2]
          +0.001*[#  10]
    |psi|^2 = 0.050
==== e(  13) =     5.32434 eV ==== 
     psi = 0.079*[#   6]+0.067*[#   5]+0.043*[#  13]+0.030*[#  14]+0.002*[#   7]
          +0.002*[#   8]
    |psi|^2 = 0.224
==== e(  14) =     7.08349 eV ==== 
     psi = 0.127*[#   6]+0.061*[#  14]+0.014*[#   5]+0.011*[#  13]+0.002*[#   2]
          +0.001*[#  10]+0.001*[#   3]+0.001*[#   4]+0.001*[#  11]+0.001*[#  12]
          
    |psi|^2 = 0.221
==== e(  15) =     7.40007 eV ==== 
     psi = 0.228*[#   3]+0.228*[#   4]+0.227*[#  11]+0.227*[#  12]+0.012*[#   1]
          +0.012*[#   9]
    |psi|^2 = 0.936
==== e(  16) =     7.61691 eV ==== 
     psi = 0.238*[#   3]+0.238*[#   4]+0.238*[#  11]+0.238*[#  12]
    |psi|^2 = 0.951
==== e(  17) =     7.87097 eV ==== 
     psi = 0.031*[#   5]+0.024*[#   6]+0.023*[#  13]+0.017*[#  14]+0.002*[#   3]
          +0.002*[#   4]+0.002*[#  11]+0.002*[#  12]
    |psi|^2 = 0.104
==== e(  18) =     9.59608 eV ==== 
     psi = 0.348*[#   7]+0.348*[#   8]+0.089*[#  15]+0.089*[#  16]+0.019*[#  13]
          +0.008*[#   5]+0.005*[#   2]+0.002*[#  10]+0.001*[#  14]
    |psi|^2 = 0.910
==== e(  19) =     9.85244 eV ==== 
     psi = 0.373*[#   7]+0.373*[#   8]+0.102*[#  15]+0.102*[#  16]
    |psi|^2 = 0.949
==== e(  20) =     9.88247 eV ==== 
     psi = 0.132*[#   6]+0.119*[#  14]+0.016*[#   2]+0.009*[#  10]+0.008*[#   5]
          +0.004*[#   7]+0.004*[#   8]+0.003*[#  13]+0.002*[#  15]+0.002*[#  16]
          +0.001*[#   9]
    |psi|^2 = 0.302

 k =   0.0000000000  0.0769800359  0.0000000000
==== e(   1) =   -20.07456 eV ==== 
     psi = 0.395*[#   9]+0.395*[#   1]+0.086*[#  13]+0.066*[#   5]+0.008*[#   3]
          +0.008*[#   4]+0.008*[#  11]+0.008*[#  12]+0.004*[#   6]+0.003*[#   7]
          +0.003*[#   8]
    |psi|^2 = 0.986
==== e(   2) =   -19.85458 eV ==== 
     psi = 0.462*[#  13]+0.335*[#   5]+0.077*[#   1]+0.078*[#   9]+0.014*[#   7]
          +0.014*[#   8]+0.003*[#  15]+0.003*[#  16]+0.001*[#   3]+0.001*[#   4]
          +0.001*[#  11]+0.001*[#  12]
    |psi|^2 = 0.993
==== e(   3) =    -8.46696 eV ==== 
     psi = 0.372*[#   2]+0.371*[#  10]+0.113*[#  14]+0.105*[#   6]+0.001*[#  13]
          
    |psi|^2 = 0.964
==== e(   4) =    -7.18131 eV ==== 
     psi = 0.444*[#  14]+0.308*[#   6]+0.110*[#  10]+0.110*[#   2]+0.001*[#   1]
          +0.002*[#   9]
    |psi|^2 = 0.975
==== e(   5) =    -4.35487 eV ==== 
     psi = 0.244*[#  11]+0.244*[#  12]+0.244*[#   3]+0.244*[#   4]+0.011*[#   1]
          +0.011*[#   9]
    |psi|^2 = 0.997
==== e(   6) =    -4.15142 eV ==== 
     psi = 0.249*[#  11]+0.249*[#  12]+0.249*[#   3]+0.249*[#   4]
    |psi|^2 = 0.997
==== e(   7) =    -3.94747 eV ==== 
     psi = 0.385*[#  15]+0.385*[#  16]+0.099*[#   7]+0.099*[#   8]+0.018*[#   5]
          +0.009*[#  13]
    |psi|^2 = 0.996
==== e(   8) =    -3.75576 eV ==== 
     psi = 0.386*[#  15]+0.386*[#  16]+0.112*[#   7]+0.112*[#   8]
    |psi|^2 = 0.997
==== e(   9) =     2.44803 eV ==== 
     psi = 0.088*[#   5]+0.055*[#  13]+0.016*[#   6]+0.010*[#   7]+0.010*[#   8]
          +0.002*[#  14]+0.002*[#  10]+0.001*[#   2]+0.001*[#   3]+0.001*[#   4]
          +0.001*[#  11]+0.001*[#  12]+0.001*[#   1]+0.001*[#   9]
    |psi|^2 = 0.193
==== e(  10) =     2.91519 eV ==== 
     psi = 0.071*[#   6]+0.021*[#   5]+0.018*[#  14]+0.014*[#  13]+0.006*[#   2]
          +0.006*[#  10]+0.003*[#   7]+0.003*[#   8]
    |psi|^2 = 0.144
==== e(  11) =     4.05631 eV ==== 
     psi = 0.017*[#   5]+0.011*[#  13]+0.002*[#   6]+0.001*[#   7]+0.001*[#   8]
          
    |psi|^2 = 0.034
==== e(  12) =     5.13917 eV ==== 
     psi = 0.019*[#   5]+0.013*[#  13]+0.010*[#   6]+0.004*[#  14]+0.001*[#   2]
          +0.001*[#   7]+0.001*[#   8]+0.001*[#  10]
    |psi|^2 = 0.050
==== e(  13) =     5.38189 eV ==== 
     psi = 0.079*[#   6]+0.064*[#   5]+0.044*[#  13]+0.030*[#  14]+0.003*[#   7]
          +0.003*[#   8]
    |psi|^2 = 0.226
==== e(  14) =     7.12967 eV ==== 
     psi = 0.130*[#   6]+0.063*[#  14]+0.013*[#   5]+0.010*[#  13]+0.002*[#   3]
          +0.002*[#   4]+0.002*[#  11]+0.002*[#  12]+0.002*[#   2]+0.001*[#  10]
          
    |psi|^2 = 0.230
==== e(  15) =     7.41759 eV ==== 
     psi = 0.220*[#   3]+0.220*[#   4]+0.219*[#  11]+0.219*[#  12]+0.022*[#   9]
          +0.022*[#   1]
    |psi|^2 = 0.925
==== e(  16) =     7.80526 eV ==== 
     psi = 0.238*[#   3]+0.238*[#   4]+0.237*[#  11]+0.237*[#  12]
    |psi|^2 = 0.950
==== e(  17) =     7.92916 eV ==== 
     psi = 0.031*[#   5]+0.024*[#   6]+0.023*[#  13]+0.017*[#  14]+0.002*[#   3]
          +0.002*[#   4]+0.002*[#  11]+0.002*[#  12]+0.001*[#   7]+0.001*[#   8]
          
    |psi|^2 = 0.109
==== e(  18) =     9.56767 eV ==== 
     psi = 0.326*[#   7]+0.326*[#   8]+0.082*[#  15]+0.082*[#  16]+0.030*[#  13]
          +0.015*[#   2]+0.015*[#   5]+0.008*[#  10]+0.002*[#  14]+0.002*[#   6]
          
    |psi|^2 = 0.887
==== e(  19) =     9.85305 eV ==== 
     psi = 0.387*[#   2]+0.384*[#  10]+0.029*[#   6]+0.027*[#  14]+0.011*[#   7]
          +0.011*[#   8]+0.003*[#  15]+0.003*[#  16]+0.003*[#   5]
    |psi|^2 = 0.858
==== e(  20) =     9.90846 eV ==== 
     psi = 0.111*[#   6]+0.105*[#  10]+0.101*[#  14]+0.090*[#   2]+0.006*[#   5]
          +0.004*[#  13]+0.002*[#   7]+0.002*[#   8]
    |psi|^2 = 0.425

 k =   0.0000000000  0.0962250449  0.0000000000
==== e(   1) =   -20.01793 eV ==== 
     psi = 0.382*[#   1]+0.382*[#   9]+0.091*[#  13]+0.067*[#   5]+0.012*[#   3]
          +0.012*[#   4]+0.012*[#  11]+0.012*[#  12]+0.005*[#   7]+0.005*[#   8]
          +0.004*[#   6]
    |psi|^2 = 0.986
==== e(   2) =   -19.80483 eV ==== 
     psi = 0.451*[#  13]+0.318*[#   5]+0.081*[#   9]+0.081*[#   1]+0.021*[#   7]
          +0.021*[#   8]+0.004*[#  15]+0.004*[#  16]+0.002*[#   3]+0.002*[#   4]
          +0.002*[#  11]+0.002*[#  12]
    |psi|^2 = 0.993
==== e(   3) =    -8.39768 eV ==== 
     psi = 0.372*[#   2]+0.372*[#  10]+0.113*[#  14]+0.105*[#   6]+0.001*[#  13]
          
    |psi|^2 = 0.965
==== e(   4) =    -7.11646 eV ==== 
     psi = 0.445*[#  14]+0.307*[#   6]+0.110*[#  10]+0.110*[#   2]+0.001*[#   1]
          +0.001*[#   9]
    |psi|^2 = 0.976
==== e(   5) =    -4.57814 eV ==== 
     psi = 0.241*[#  11]+0.241*[#  12]+0.241*[#   3]+0.241*[#   4]+0.017*[#   1]
          +0.017*[#   9]
    |psi|^2 = 0.997
==== e(   6) =    -4.26405 eV ==== 
     psi = 0.249*[#  11]+0.249*[#  12]+0.249*[#   3]+0.249*[#   4]
    |psi|^2 = 0.997
==== e(   7) =    -4.14166 eV ==== 
     psi = 0.382*[#  15]+0.382*[#  16]+0.095*[#   7]+0.095*[#   8]+0.026*[#   5]
          +0.014*[#  13]
    |psi|^2 = 0.995
==== e(   8) =    -3.84655 eV ==== 
     psi = 0.383*[#  15]+0.383*[#  16]+0.115*[#   7]+0.115*[#   8]
    |psi|^2 = 0.997
==== e(   9) =     2.52853 eV ==== 
     psi = 0.080*[#   5]+0.055*[#  13]+0.016*[#   6]+0.015*[#   7]+0.015*[#   8]
          +0.002*[#  14]+0.002*[#   3]+0.002*[#   4]+0.002*[#  11]+0.002*[#  12]
          +0.002*[#  10]+0.001*[#   2]
    |psi|^2 = 0.196
==== e(  10) =     2.99311 eV ==== 
     psi = 0.070*[#   6]+0.019*[#   5]+0.018*[#  14]+0.015*[#  13]+0.006*[#   2]
          +0.005*[#  10]+0.004*[#   7]+0.004*[#   8]
    |psi|^2 = 0.145
==== e(  11) =     4.13692 eV ==== 
     psi = 0.016*[#   5]+0.011*[#  13]+0.002*[#   7]+0.002*[#   8]+0.002*[#   6]
          
    |psi|^2 = 0.035
==== e(  12) =     5.21874 eV ==== 
     psi = 0.017*[#   5]+0.012*[#  13]+0.010*[#   6]+0.004*[#  14]+0.002*[#   7]
          +0.002*[#   8]+0.001*[#   2]+0.001*[#  10]
    |psi|^2 = 0.050
==== e(  13) =     5.45502 eV ==== 
     psi = 0.080*[#   6]+0.062*[#   5]+0.044*[#  13]+0.031*[#  14]+0.005*[#   7]
          +0.005*[#   8]
    |psi|^2 = 0.229
==== e(  14) =     7.18688 eV ==== 
     psi = 0.133*[#   6]+0.066*[#  14]+0.011*[#   5]+0.009*[#  13]+0.005*[#  11]
          +0.005*[#  12]+0.005*[#   3]+0.005*[#   4]+0.002*[#   2]+0.001*[#  10]
          
    |psi|^2 = 0.243
==== e(  15) =     7.43301 eV ==== 
     psi = 0.209*[#   3]+0.209*[#   4]+0.209*[#  11]+0.209*[#  12]+0.035*[#   9]
          +0.035*[#   1]+0.001*[#   6]+0.001*[#  14]+0.001*[#  13]
    |psi|^2 = 0.910
==== e(  16) =     8.00238 eV ==== 
     psi = 0.031*[#   5]+0.024*[#   6]+0.024*[#  13]+0.018*[#  14]+0.003*[#   3]
          +0.003*[#   4]+0.003*[#  11]+0.003*[#  12]+0.002*[#   7]+0.002*[#   8]
          
    |psi|^2 = 0.114
==== e(  17) =     8.04207 eV ==== 
     psi = 0.237*[#   3]+0.237*[#   4]+0.237*[#  11]+0.237*[#  12]
    |psi|^2 = 0.949
==== e(  18) =     9.52475 eV ==== 
     psi = 0.274*[#   7]+0.274*[#   8]+0.071*[#   2]+0.067*[#  15]+0.067*[#  16]
          +0.055*[#  10]+0.037*[#  13]+0.022*[#   5]+0.002*[#  14]+0.002*[#   6]
          
    |psi|^2 = 0.874
==== e(  19) =     9.68596 eV ==== 
     psi = 0.435*[#  10]+0.414*[#   2]+0.041*[#   7]+0.041*[#   8]+0.010*[#  15]
          +0.010*[#  16]+0.006*[#  13]+0.004*[#   5]+0.002*[#   6]+0.002*[#  14]
          
    |psi|^2 = 0.966
==== e(  20) =     9.90883 eV ==== 
     psi = 0.144*[#   6]+0.135*[#  14]+0.008*[#   5]+0.007*[#  10]+0.005*[#   7]
          +0.005*[#   8]+0.005*[#   2]+0.002*[#  13]+0.002*[#  15]+0.002*[#  16]
          +0.001*[#   9]
    |psi|^2 = 0.319

 k =   0.0000000000  0.1154700538  0.0000000000
==== e(   1) =   -19.94893 eV ==== 
     psi = 0.366*[#   1]+0.366*[#   9]+0.098*[#  13]+0.070*[#   5]+0.016*[#   3]
          +0.016*[#   4]+0.016*[#  11]+0.016*[#  12]+0.008*[#   7]+0.008*[#   8]
          +0.004*[#   6]+0.001*[#  15]+0.001*[#  16]
    |psi|^2 = 0.986
==== e(   2) =   -19.74407 eV ==== 
     psi = 0.439*[#  13]+0.298*[#   5]+0.087*[#   9]+0.087*[#   1]+0.028*[#   7]
          +0.028*[#   8]+0.006*[#  15]+0.006*[#  16]+0.003*[#   3]+0.003*[#   4]
          +0.003*[#  11]+0.003*[#  12]
    |psi|^2 = 0.993
==== e(   3) =    -8.31315 eV ==== 
     psi = 0.373*[#   2]+0.372*[#  10]+0.114*[#  14]+0.105*[#   6]+0.001*[#  13]
          
    |psi|^2 = 0.966
==== e(   4) =    -7.03738 eV ==== 
     psi = 0.447*[#  14]+0.307*[#   6]+0.111*[#  10]+0.110*[#   2]+0.001*[#   1]
          +0.001*[#   9]
    |psi|^2 = 0.977
==== e(   5) =    -4.84075 eV ==== 
     psi = 0.238*[#  11]+0.238*[#  12]+0.237*[#   3]+0.237*[#   4]+0.023*[#   1]
          +0.023*[#   9]
    |psi|^2 = 0.997
==== e(   6) =    -4.39468 eV ==== 
     psi = 0.249*[#  11]+0.249*[#  12]+0.249*[#   3]+0.249*[#   4]
    |psi|^2 = 0.997
==== e(   7) =    -4.37048 eV ==== 
     psi = 0.379*[#  15]+0.379*[#  16]+0.091*[#   7]+0.091*[#   8]+0.035*[#   5]
          +0.019*[#  13]
    |psi|^2 = 0.995
==== e(   8) =    -3.95276 eV ==== 
     psi = 0.381*[#  15]+0.381*[#  16]+0.118*[#   7]+0.118*[#   8]
    |psi|^2 = 0.997
==== e(   9) =     2.62631 eV ==== 
     psi = 0.072*[#   5]+0.055*[#  13]+0.019*[#   7]+0.019*[#   8]+0.015*[#   6]
          +0.003*[#   3]+0.003*[#   4]+0.003*[#  11]+0.003*[#  12]+0.002*[#  14]
          +0.002*[#  10]+0.001*[#   2]
    |psi|^2 = 0.198
==== e(  10) =     3.08807 eV ==== 
     psi = 0.070*[#   6]+0.018*[#  14]+0.018*[#   5]+0.015*[#  13]+0.005*[#   7]
          +0.005*[#   8]+0.005*[#   2]+0.005*[#  10]
    |psi|^2 = 0.145
==== e(  11) =     4.23529 eV ==== 
     psi = 0.015*[#   5]+0.011*[#  13]+0.002*[#   7]+0.002*[#   8]+0.002*[#   6]
          
    |psi|^2 = 0.035
==== e(  12) =     5.31563 eV ==== 
     psi = 0.015*[#   5]+0.012*[#  13]+0.011*[#   6]+0.004*[#  14]+0.002*[#   7]
          +0.002*[#   8]+0.001*[#   2]
    |psi|^2 = 0.050
==== e(  13) =     5.54303 eV ==== 
     psi = 0.082*[#   6]+0.060*[#   5]+0.044*[#  13]+0.032*[#  14]+0.006*[#   7]
          +0.006*[#   8]
    |psi|^2 = 0.233
==== e(  14) =     7.25242 eV ==== 
     psi = 0.136*[#   6]+0.069*[#  14]+0.011*[#  11]+0.011*[#  12]+0.011*[#   3]
          +0.011*[#   4]+0.009*[#   5]+0.007*[#  13]+0.002*[#   1]+0.002*[#   2]
          +0.002*[#   9]
    |psi|^2 = 0.272
==== e(  15) =     7.44370 eV ==== 
     psi = 0.194*[#   3]+0.194*[#   4]+0.193*[#  11]+0.193*[#  12]+0.049*[#   9]
          +0.049*[#   1]+0.005*[#   6]+0.004*[#  14]+0.002*[#  13]+0.001*[#   5]
          
    |psi|^2 = 0.885
==== e(  16) =     8.08940 eV ==== 
     psi = 0.031*[#   5]+0.025*[#  13]+0.025*[#   6]+0.019*[#  14]+0.004*[#   7]
          +0.004*[#   8]+0.003*[#   3]+0.003*[#   4]+0.003*[#  11]+0.003*[#  12]
          
    |psi|^2 = 0.121
==== e(  17) =     8.32394 eV ==== 
     psi = 0.237*[#   3]+0.237*[#   4]+0.237*[#  11]+0.237*[#  12]
    |psi|^2 = 0.947
==== e(  18) =     9.40405 eV ==== 
     psi = 0.379*[#   2]+0.359*[#  10]+0.073*[#   7]+0.073*[#   8]+0.018*[#  15]
          +0.018*[#  16]+0.012*[#  13]+0.009*[#   5]+0.002*[#  14]+0.001*[#   6]
          
    |psi|^2 = 0.944
==== e(  19) =     9.54891 eV ==== 
     psi = 0.223*[#   7]+0.223*[#   8]+0.134*[#  10]+0.109*[#   2]+0.053*[#  15]
          +0.053*[#  16]+0.042*[#  13]+0.028*[#   5]+0.002*[#   6]+0.002*[#  14]
          
    |psi|^2 = 0.870
==== e(  20) =     9.90889 eV ==== 
     psi = 0.152*[#   6]+0.145*[#  14]+0.007*[#   5]+0.007*[#   7]+0.007*[#   8]
          +0.003*[#  10]+0.003*[#  15]+0.003*[#  16]+0.002*[#   2]+0.002*[#  13]
          +0.001*[#   9]
    |psi|^2 = 0.332

 k =   0.0000000000  0.1347150628  0.0000000000
==== e(   1) =   -19.86773 eV ==== 
     psi = 0.347*[#   1]+0.347*[#   9]+0.108*[#  13]+0.073*[#   5]+0.020*[#   3]
          +0.020*[#   4]+0.020*[#  11]+0.020*[#  12]+0.011*[#   7]+0.011*[#   8]
          +0.003*[#   6]+0.002*[#  15]+0.002*[#  16]
    |psi|^2 = 0.986
==== e(   2) =   -19.67229 eV ==== 
     psi = 0.423*[#  13]+0.276*[#   5]+0.094*[#   9]+0.094*[#   1]+0.035*[#   7]
          +0.035*[#   8]+0.007*[#  15]+0.007*[#  16]+0.005*[#   3]+0.005*[#   4]
          +0.005*[#  11]+0.005*[#  12]
    |psi|^2 = 0.993
==== e(   3) =    -8.21353 eV ==== 
     psi = 0.373*[#   2]+0.373*[#  10]+0.115*[#  14]+0.105*[#   6]+0.001*[#  13]
          
    |psi|^2 = 0.968
==== e(   4) =    -6.94431 eV ==== 
     psi = 0.448*[#  14]+0.306*[#   6]+0.111*[#  10]+0.110*[#   2]+0.001*[#   1]
          +0.001*[#   9]
    |psi|^2 = 0.978
==== e(   5) =    -5.13786 eV ==== 
     psi = 0.234*[#  11]+0.234*[#  12]+0.233*[#   3]+0.233*[#   4]+0.031*[#   1]
          +0.031*[#   9]
    |psi|^2 = 0.997
==== e(   6) =    -4.62979 eV ==== 
     psi = 0.375*[#  15]+0.375*[#  16]+0.087*[#   7]+0.087*[#   8]+0.044*[#   5]
          +0.025*[#  13]
    |psi|^2 = 0.994
==== e(   7) =    -4.54005 eV ==== 
     psi = 0.249*[#  11]+0.249*[#  12]+0.249*[#   3]+0.249*[#   4]
    |psi|^2 = 0.997
==== e(   8) =    -4.07205 eV ==== 
     psi = 0.378*[#  15]+0.378*[#  16]+0.121*[#   7]+0.121*[#   8]
    |psi|^2 = 0.997
==== e(   9) =     2.74115 eV ==== 
     psi = 0.065*[#   5]+0.056*[#  13]+0.023*[#   7]+0.023*[#   8]+0.015*[#   6]
          +0.003*[#   3]+0.003*[#   4]+0.003*[#  11]+0.003*[#  12]+0.002*[#  14]
          +0.002*[#  10]+0.001*[#   2]
    |psi|^2 = 0.201
==== e(  10) =     3.19991 eV ==== 
     psi = 0.069*[#   6]+0.018*[#  14]+0.016*[#   5]+0.015*[#  13]+0.007*[#   7]
          +0.007*[#   8]+0.005*[#   2]+0.005*[#  10]+0.001*[#   3]+0.001*[#   4]
          +0.001*[#  11]+0.001*[#  12]
    |psi|^2 = 0.146
==== e(  11) =     4.35133 eV ==== 
     psi = 0.014*[#   5]+0.011*[#  13]+0.003*[#   7]+0.003*[#   8]+0.002*[#   6]
          
    |psi|^2 = 0.035
==== e(  12) =     5.42965 eV ==== 
     psi = 0.014*[#   5]+0.013*[#   6]+0.011*[#  13]+0.005*[#  14]+0.002*[#   7]
          +0.002*[#   8]
    |psi|^2 = 0.050
==== e(  13) =     5.64505 eV ==== 
     psi = 0.085*[#   6]+0.058*[#   5]+0.045*[#  13]+0.034*[#  14]+0.008*[#   7]
          +0.008*[#   8]
    |psi|^2 = 0.240
==== e(  14) =     7.31976 eV ==== 
     psi = 0.129*[#   6]+0.066*[#  14]+0.032*[#  11]+0.032*[#  12]+0.031*[#   3]
          +0.031*[#   4]+0.009*[#   1]+0.009*[#   9]+0.006*[#   5]+0.005*[#  13]
          +0.001*[#   2]
    |psi|^2 = 0.353
==== e(  15) =     7.45131 eV ==== 
     psi = 0.163*[#   3]+0.163*[#   4]+0.162*[#  11]+0.162*[#  12]+0.060*[#   9]
          +0.060*[#   1]+0.020*[#   6]+0.013*[#  14]+0.003*[#  13]+0.003*[#   5]
          
    |psi|^2 = 0.811
==== e(  16) =     8.18839 eV ==== 
     psi = 0.033*[#   5]+0.027*[#  13]+0.026*[#   6]+0.021*[#  14]+0.005*[#   7]
          +0.005*[#   8]+0.003*[#   3]+0.003*[#   4]+0.003*[#  11]+0.003*[#  12]
          
    |psi|^2 = 0.130
==== e(  17) =     8.64704 eV ==== 
     psi = 0.236*[#   3]+0.236*[#   4]+0.236*[#  11]+0.236*[#  12]
    |psi|^2 = 0.945
==== e(  18) =     9.16444 eV ==== 
     psi = 0.469*[#   2]+0.463*[#  10]+0.013*[#   7]+0.013*[#   8]+0.003*[#  15]
          +0.003*[#  16]+0.002*[#   5]+0.002*[#  13]
    |psi|^2 = 0.971
==== e(  19) =     9.49464 eV ==== 
     psi = 0.263*[#   7]+0.263*[#   8]+0.062*[#  15]+0.062*[#  16]+0.062*[#  13]
          +0.048*[#   5]+0.029*[#  10]+0.017*[#   2]+0.003*[#   6]+0.003*[#  14]
          
    |psi|^2 = 0.813
==== e(  20) =     9.89675 eV ==== 
     psi = 0.157*[#   6]+0.155*[#  14]+0.008*[#   7]+0.008*[#   8]+0.007*[#   5]
          +0.003*[#  15]+0.003*[#  16]+0.001*[#   2]+0.001*[#  13]+0.001*[#   9]
          +0.001*[#  10]
    |psi|^2 = 0.347

 k =   0.0000000000  0.1539600718  0.0000000000
==== e(   1) =   -19.77457 eV ==== 
     psi = 0.325*[#   1]+0.325*[#   9]+0.122*[#  13]+0.078*[#   5]+0.024*[#   3]
          +0.024*[#   4]+0.024*[#  11]+0.024*[#  12]+0.015*[#   7]+0.015*[#   8]
          +0.003*[#   6]+0.003*[#  15]+0.003*[#  16]
    |psi|^2 = 0.986
==== e(   2) =   -19.58946 eV ==== 
     psi = 0.404*[#  13]+0.252*[#   5]+0.104*[#   9]+0.103*[#   1]+0.041*[#   7]
          +0.041*[#   8]+0.008*[#  15]+0.008*[#  16]+0.007*[#   3]+0.007*[#   4]
          +0.007*[#  11]+0.007*[#  12]
    |psi|^2 = 0.992
==== e(   3) =    -8.09891 eV ==== 
     psi = 0.374*[#   2]+0.373*[#  10]+0.116*[#  14]+0.105*[#   6]+0.001*[#  13]
          
    |psi|^2 = 0.970
==== e(   4) =    -6.83740 eV ==== 
     psi = 0.451*[#  14]+0.304*[#   6]+0.112*[#  10]+0.111*[#   2]+0.001*[#   1]
          +0.001*[#   9]
    |psi|^2 = 0.980
==== e(   5) =    -5.46483 eV ==== 
     psi = 0.230*[#  11]+0.230*[#  12]+0.230*[#   3]+0.230*[#   4]+0.038*[#   1]
          +0.038*[#   9]
    |psi|^2 = 0.996
==== e(   6) =    -4.91543 eV ==== 
     psi = 0.371*[#  15]+0.371*[#  16]+0.083*[#   7]+0.083*[#   8]+0.053*[#   5]
          +0.031*[#  13]
    |psi|^2 = 0.994
==== e(   7) =    -4.69681 eV ==== 
     psi = 0.249*[#  11]+0.249*[#  12]+0.249*[#   3]+0.249*[#   4]
    |psi|^2 = 0.997
==== e(   8) =    -4.20194 eV ==== 
     psi = 0.374*[#  15]+0.374*[#  16]+0.124*[#   7]+0.124*[#   8]
    |psi|^2 = 0.997
==== e(   9) =     2.87286 eV ==== 
     psi = 0.058*[#   5]+0.056*[#  13]+0.027*[#   7]+0.027*[#   8]+0.014*[#   6]
          +0.004*[#   3]+0.004*[#   4]+0.004*[#  11]+0.004*[#  12]+0.002*[#  14]
          +0.002*[#  10]+0.001*[#   2]
    |psi|^2 = 0.203
==== e(  10) =     3.32844 eV ==== 
     psi = 0.068*[#   6]+0.019*[#  14]+0.015*[#  13]+0.015*[#   5]+0.008*[#   7]
          +0.008*[#   8]+0.005*[#   2]+0.004*[#  10]+0.001*[#   3]+0.001*[#   4]
          +0.001*[#  11]+0.001*[#  12]
    |psi|^2 = 0.146
==== e(  11) =     4.48497 eV ==== 
     psi = 0.013*[#   5]+0.011*[#  13]+0.003*[#   7]+0.003*[#   8]+0.002*[#   6]
          
    |psi|^2 = 0.036
==== e(  12) =     5.56049 eV ==== 
     psi = 0.015*[#   6]+0.012*[#   5]+0.010*[#  13]+0.006*[#  14]+0.003*[#   7]
          +0.003*[#   8]
    |psi|^2 = 0.051
==== e(  13) =     5.75993 eV ==== 
     psi = 0.088*[#   6]+0.056*[#   5]+0.045*[#  13]+0.036*[#  14]+0.009*[#   7]
          +0.009*[#   8]
    |psi|^2 = 0.248
==== e(  14) =     7.36708 eV ==== 
     psi = 0.100*[#  11]+0.100*[#  12]+0.100*[#   3]+0.100*[#   4]+0.077*[#   6]
          +0.045*[#   1]+0.044*[#   9]+0.038*[#  14]+0.002*[#   5]+0.001*[#  13]
          
    |psi|^2 = 0.608
==== e(  15) =     7.47284 eV ==== 
     psi = 0.084*[#   3]+0.084*[#   4]+0.083*[#  11]+0.083*[#  12]+0.083*[#   6]
          +0.050*[#  14]+0.045*[#   9]+0.044*[#   1]+0.005*[#   5]+0.005*[#  13]
          +0.001*[#   2]
    |psi|^2 = 0.569
==== e(  16) =     8.29611 eV ==== 
     psi = 0.035*[#   5]+0.030*[#  13]+0.027*[#   6]+0.023*[#  14]+0.008*[#   7]
          +0.008*[#   8]+0.002*[#   3]+0.002*[#   4]+0.002*[#  11]+0.002*[#  12]
          +0.002*[#   2]+0.002*[#  10]
    |psi|^2 = 0.147
==== e(  17) =     8.87950 eV ==== 
     psi = 0.478*[#   2]+0.478*[#  10]+0.004*[#   7]+0.004*[#   8]+0.001*[#   5]
          +0.001*[#  15]+0.001*[#  16]
    |psi|^2 = 0.969
==== e(  18) =     9.00776 eV ==== 
     psi = 0.236*[#   3]+0.236*[#   4]+0.236*[#  11]+0.236*[#  12]
    |psi|^2 = 0.943
==== e(  19) =     9.45645 eV ==== 
     psi = 0.252*[#   7]+0.252*[#   8]+0.071*[#  13]+0.062*[#   5]+0.058*[#  15]
          +0.058*[#  16]+0.013*[#  10]+0.005*[#   2]+0.003*[#   6]+0.003*[#  14]
          
    |psi|^2 = 0.778
==== e(  20) =     9.86818 eV ==== 
     psi = 0.160*[#  14]+0.157*[#   6]+0.009*[#   7]+0.009*[#   8]+0.006*[#   5]
          +0.003*[#  15]+0.003*[#  16]+0.001*[#   2]+0.001*[#  13]+0.001*[#   9]
          
    |psi|^2 = 0.354

 k =   0.0000000000  0.1732050808  0.0000000000
==== e(   1) =   -19.66981 eV ==== 
     psi = 0.299*[#   1]+0.299*[#   9]+0.140*[#  13]+0.085*[#   5]+0.028*[#   3]
          +0.028*[#   4]+0.028*[#  11]+0.028*[#  12]+0.020*[#   7]+0.020*[#   8]
          +0.004*[#  15]+0.004*[#  16]+0.002*[#   6]
    |psi|^2 = 0.985
==== e(   2) =   -19.49544 eV ==== 
     psi = 0.380*[#  13]+0.225*[#   5]+0.117*[#   9]+0.117*[#   1]+0.046*[#   7]
          +0.046*[#   8]+0.010*[#   3]+0.010*[#   4]+0.010*[#  11]+0.010*[#  12]
          +0.009*[#  15]+0.009*[#  16]
    |psi|^2 = 0.992
==== e(   3) =    -7.96945 eV ==== 
     psi = 0.375*[#   2]+0.374*[#  10]+0.117*[#  14]+0.104*[#   6]+0.001*[#  13]
          
    |psi|^2 = 0.972
==== e(   4) =    -6.71698 eV ==== 
     psi = 0.453*[#  14]+0.303*[#   6]+0.112*[#  10]+0.111*[#   2]+0.001*[#   9]
          
    |psi|^2 = 0.981
==== e(   5) =    -5.81717 eV ==== 
     psi = 0.226*[#  11]+0.226*[#  12]+0.225*[#   3]+0.225*[#   4]+0.046*[#   1]
          +0.046*[#   9]
    |psi|^2 = 0.996
==== e(   6) =    -5.22331 eV ==== 
     psi = 0.367*[#  15]+0.367*[#  16]+0.080*[#   7]+0.080*[#   8]+0.063*[#   5]
          +0.037*[#  13]
    |psi|^2 = 0.994
==== e(   7) =    -4.86211 eV ==== 
     psi = 0.249*[#  11]+0.249*[#  12]+0.249*[#   3]+0.249*[#   4]
    |psi|^2 = 0.997
==== e(   8) =    -4.34016 eV ==== 
     psi = 0.371*[#  15]+0.371*[#  16]+0.127*[#   7]+0.127*[#   8]
    |psi|^2 = 0.997
==== e(   9) =     3.02127 eV ==== 
     psi = 0.056*[#  13]+0.053*[#   5]+0.030*[#   7]+0.030*[#   8]+0.014*[#   6]
          +0.004*[#   3]+0.004*[#   4]+0.004*[#  11]+0.004*[#  12]+0.002*[#  14]
          +0.002*[#  10]+0.001*[#   2]
    |psi|^2 = 0.204
==== e(  10) =     3.47341 eV ==== 
     psi = 0.067*[#   6]+0.019*[#  14]+0.016*[#  13]+0.013*[#   5]+0.009*[#   7]
          +0.009*[#   8]+0.004*[#   2]+0.004*[#  10]+0.001*[#   3]+0.001*[#   4]
          +0.001*[#  11]+0.001*[#  12]
    |psi|^2 = 0.147
==== e(  11) =     4.63612 eV ==== 
     psi = 0.013*[#   5]+0.011*[#  13]+0.004*[#   7]+0.004*[#   8]+0.002*[#   6]
          
    |psi|^2 = 0.037
==== e(  12) =     5.70769 eV ==== 
     psi = 0.018*[#   6]+0.010*[#   5]+0.009*[#  13]+0.008*[#  14]+0.003*[#   7]
          +0.003*[#   8]
    |psi|^2 = 0.052
==== e(  13) =     5.88609 eV ==== 
     psi = 0.093*[#   6]+0.055*[#   5]+0.046*[#  13]+0.039*[#  14]+0.011*[#   7]
          +0.011*[#   8]+0.001*[#  15]+0.001*[#  16]
    |psi|^2 = 0.260
==== e(  14) =     7.36766 eV ==== 
     psi = 0.150*[#  11]+0.150*[#  12]+0.150*[#   3]+0.150*[#   4]+0.092*[#   1]
          +0.091*[#   9]+0.024*[#   6]+0.011*[#  14]
    |psi|^2 = 0.818
==== e(  15) =     7.52985 eV ==== 
     psi = 0.149*[#   6]+0.090*[#  14]+0.023*[#   3]+0.023*[#   4]+0.022*[#  11]
          +0.022*[#  12]+0.018*[#   9]+0.017*[#   1]+0.005*[#   5]+0.005*[#  13]
          +0.002*[#   2]
    |psi|^2 = 0.380
==== e(  16) =     8.39873 eV ==== 
     psi = 0.038*[#   2]+0.037*[#  10]+0.037*[#   5]+0.033*[#  13]+0.028*[#   6]
          +0.025*[#  14]+0.014*[#   7]+0.014*[#   8]+0.002*[#   3]+0.002*[#   4]
          +0.002*[#  11]+0.002*[#  12]+0.002*[#  15]+0.002*[#  16]
    |psi|^2 = 0.235
==== e(  17) =     8.57488 eV ==== 
     psi = 0.446*[#  10]+0.443*[#   2]+0.004*[#   5]+0.002*[#  13]
    |psi|^2 = 0.900
==== e(  18) =     9.40243 eV ==== 
     psi = 0.235*[#   3]+0.235*[#   4]+0.235*[#  11]+0.235*[#  12]
    |psi|^2 = 0.941
==== e(  19) =     9.42595 eV ==== 
     psi = 0.234*[#   7]+0.234*[#   8]+0.077*[#  13]+0.073*[#   5]+0.054*[#  15]
          +0.054*[#  16]+0.007*[#  10]+0.003*[#   6]+0.003*[#  14]+0.002*[#   2]
          
    |psi|^2 = 0.740
==== e(  20) =     9.82340 eV ==== 
     psi = 0.158*[#  14]+0.150*[#   6]+0.009*[#   7]+0.009*[#   8]+0.005*[#   5]
          +0.003*[#  15]+0.003*[#  16]+0.002*[#   2]+0.002*[#  13]
    |psi|^2 = 0.347

 k =   0.0000000000  0.1924500897  0.0000000000
==== e(   1) =   -19.55401 eV ==== 
     psi = 0.269*[#   1]+0.269*[#   9]+0.166*[#  13]+0.095*[#   5]+0.030*[#   3]
          +0.030*[#   4]+0.030*[#  11]+0.030*[#  12]+0.027*[#   7]+0.027*[#   8]
          +0.005*[#  15]+0.005*[#  16]+0.002*[#   6]
    |psi|^2 = 0.985
==== e(   2) =   -19.39001 eV ==== 
     psi = 0.350*[#  13]+0.197*[#   5]+0.135*[#   9]+0.135*[#   1]+0.049*[#   7]
          +0.049*[#   8]+0.014*[#   3]+0.014*[#   4]+0.014*[#  11]+0.014*[#  12]
          +0.010*[#  15]+0.010*[#  16]
    |psi|^2 = 0.991
==== e(   3) =    -7.82542 eV ==== 
     psi = 0.375*[#   2]+0.374*[#  10]+0.118*[#  14]+0.104*[#   6]+0.001*[#  13]
          
    |psi|^2 = 0.974
==== e(   4) =    -6.58349 eV ==== 
     psi = 0.456*[#  14]+0.300*[#   6]+0.112*[#  10]+0.111*[#   2]+0.001*[#   9]
          
    |psi|^2 = 0.983
==== e(   5) =    -6.19088 eV ==== 
     psi = 0.222*[#  11]+0.222*[#  12]+0.221*[#   3]+0.221*[#   4]+0.054*[#   1]
          +0.054*[#   9]
    |psi|^2 = 0.995
==== e(   6) =    -5.54947 eV ==== 
     psi = 0.363*[#  15]+0.363*[#  16]+0.076*[#   7]+0.076*[#   8]+0.071*[#   5]
          +0.042*[#  13]
    |psi|^2 = 0.993
==== e(   7) =    -5.03292 eV ==== 
     psi = 0.249*[#  11]+0.249*[#  12]+0.249*[#   3]+0.249*[#   4]
    |psi|^2 = 0.997
==== e(   8) =    -4.48429 eV ==== 
     psi = 0.368*[#  15]+0.368*[#  16]+0.130*[#   7]+0.130*[#   8]
    |psi|^2 = 0.997
==== e(   9) =     3.18622 eV ==== 
     psi = 0.056*[#  13]+0.049*[#   5]+0.032*[#   7]+0.032*[#   8]+0.013*[#   6]
          +0.004*[#   3]+0.004*[#   4]+0.004*[#  11]+0.004*[#  12]+0.002*[#  14]
          +0.002*[#  10]+0.001*[#   2]
    |psi|^2 = 0.205
==== e(  10) =     3.63448 eV ==== 
     psi = 0.067*[#   6]+0.019*[#  14]+0.016*[#  13]+0.012*[#   5]+0.010*[#   7]
          +0.010*[#   8]+0.004*[#   2]+0.003*[#  10]+0.002*[#   3]+0.002*[#   4]
          +0.002*[#  11]+0.002*[#  12]
    |psi|^2 = 0.147
==== e(  11) =     4.80467 eV ==== 
     psi = 0.012*[#   5]+0.012*[#  13]+0.004*[#   7]+0.004*[#   8]+0.002*[#   6]
          +0.001*[#  14]
    |psi|^2 = 0.037
==== e(  12) =     5.87024 eV ==== 
     psi = 0.025*[#   6]+0.011*[#  14]+0.007*[#   5]+0.007*[#  13]+0.002*[#   7]
          +0.002*[#   8]
    |psi|^2 = 0.057
==== e(  13) =     6.02128 eV ==== 
     psi = 0.098*[#   6]+0.056*[#   5]+0.048*[#  13]+0.043*[#  14]+0.013*[#   7]
          +0.013*[#   8]+0.001*[#  15]+0.001*[#  16]+0.001*[#   2]
    |psi|^2 = 0.276
==== e(  14) =     7.34004 eV ==== 
     psi = 0.154*[#   3]+0.154*[#   4]+0.154*[#  11]+0.154*[#  12]+0.122*[#   1]
          +0.121*[#   9]+0.008*[#   6]+0.003*[#  14]
    |psi|^2 = 0.872
==== e(  15) =     7.59666 eV ==== 
     psi = 0.182*[#   6]+0.113*[#  14]+0.009*[#   9]+0.008*[#   1]+0.007*[#   3]
          +0.007*[#   4]+0.007*[#  11]+0.007*[#  12]+0.005*[#   2]+0.003*[#   5]
          +0.003*[#  13]+0.001*[#  10]
    |psi|^2 = 0.355
==== e(  16) =     8.20479 eV ==== 
     psi = 0.461*[#  10]+0.456*[#   2]+0.005*[#   6]+0.004*[#  14]+0.003*[#   7]
          +0.003*[#   8]+0.002*[#  13]+0.002*[#   5]
    |psi|^2 = 0.938
==== e(  17) =     8.54100 eV ==== 
     psi = 0.047*[#   5]+0.040*[#  13]+0.026*[#   6]+0.026*[#  14]+0.023*[#  10]
          +0.021*[#   2]+0.017*[#   7]+0.017*[#   8]+0.002*[#  15]+0.002*[#  16]
          +0.001*[#   3]+0.001*[#   4]+0.001*[#  11]+0.001*[#  12]
    |psi|^2 = 0.228
==== e(  18) =     9.40748 eV ==== 
     psi = 0.213*[#   7]+0.213*[#   8]+0.081*[#   5]+0.078*[#  13]+0.049*[#  15]
          +0.049*[#  16]+0.004*[#  10]+0.002*[#   6]+0.002*[#  14]
    |psi|^2 = 0.692
==== e(  19) =     9.76951 eV ==== 
     psi = 0.146*[#  14]+0.134*[#   6]+0.009*[#   7]+0.009*[#   8]+0.004*[#   5]
          +0.003*[#  15]+0.003*[#  16]+0.002*[#   2]+0.002*[#  13]+0.001*[#  11]
          +0.001*[#  12]
    |psi|^2 = 0.317
==== e(  20) =     9.82756 eV ==== 
     psi = 0.235*[#   3]+0.235*[#   4]+0.235*[#  11]+0.235*[#  12]
    |psi|^2 = 0.939

 k =   0.0000000000  0.2116950987  0.0000000000
==== e(   1) =   -19.42790 eV ==== 
     psi = 0.233*[#   1]+0.233*[#   9]+0.200*[#  13]+0.108*[#   5]+0.037*[#   7]
          +0.037*[#   8]+0.030*[#   3]+0.030*[#   4]+0.031*[#  11]+0.031*[#  12]
          +0.007*[#  15]+0.007*[#  16]+0.002*[#   6]
    |psi|^2 = 0.985
==== e(   2) =   -19.27273 eV ==== 
     psi = 0.311*[#  13]+0.165*[#   5]+0.158*[#   9]+0.158*[#   1]+0.049*[#   7]
          +0.049*[#   8]+0.020*[#   3]+0.020*[#   4]+0.019*[#  11]+0.019*[#  12]
          +0.010*[#  15]+0.010*[#  16]
    |psi|^2 = 0.991
==== e(   3) =    -7.66714 eV ==== 
     psi = 0.375*[#   2]+0.375*[#  10]+0.120*[#  14]+0.103*[#   6]+0.002*[#  13]
          
    |psi|^2 = 0.976
==== e(   4) =    -6.58188 eV ==== 
     psi = 0.217*[#  11]+0.217*[#  12]+0.217*[#   3]+0.217*[#   4]+0.063*[#   9]
          +0.062*[#   1]
    |psi|^2 = 0.995
==== e(   5) =    -6.43760 eV ==== 
     psi = 0.459*[#  14]+0.297*[#   6]+0.111*[#  10]+0.111*[#   2]+0.002*[#  15]
          +0.002*[#  16]+0.001*[#   1]
    |psi|^2 = 0.985
==== e(   6) =    -5.88911 eV ==== 
     psi = 0.357*[#  15]+0.357*[#  16]+0.080*[#   5]+0.073*[#   7]+0.073*[#   8]
          +0.047*[#  13]+0.002*[#  10]+0.002*[#   2]+0.001*[#  14]
    |psi|^2 = 0.993
==== e(   7) =    -5.20658 eV ==== 
     psi = 0.249*[#  11]+0.249*[#  12]+0.249*[#   3]+0.249*[#   4]
    |psi|^2 = 0.997
==== e(   8) =    -4.63215 eV ==== 
     psi = 0.365*[#  15]+0.365*[#  16]+0.134*[#   7]+0.134*[#   8]
    |psi|^2 = 0.997
==== e(   9) =     3.36758 eV ==== 
     psi = 0.057*[#  13]+0.046*[#   5]+0.033*[#   7]+0.033*[#   8]+0.013*[#   6]
          +0.004*[#   3]+0.004*[#   4]+0.004*[#  11]+0.004*[#  12]+0.002*[#  14]
          +0.002*[#  10]+0.001*[#   2]
    |psi|^2 = 0.206
==== e(  10) =     3.81118 eV ==== 
     psi = 0.067*[#   6]+0.020*[#  14]+0.016*[#  13]+0.011*[#   5]+0.010*[#   7]
          +0.010*[#   8]+0.003*[#   2]+0.003*[#  10]+0.002*[#   3]+0.002*[#   4]
          +0.002*[#  11]+0.002*[#  12]
    |psi|^2 = 0.148
==== e(  11) =     4.99046 eV ==== 
     psi = 0.012*[#   5]+0.012*[#  13]+0.005*[#   7]+0.005*[#   8]+0.003*[#   6]
          +0.001*[#  14]
    |psi|^2 = 0.039
==== e(  12) =     6.04532 eV ==== 
     psi = 0.042*[#   6]+0.020*[#  14]+0.003*[#   5]+0.003*[#  13]+0.001*[#   7]
          +0.001*[#   8]
    |psi|^2 = 0.074
==== e(  13) =     6.16303 eV ==== 
     psi = 0.099*[#   6]+0.059*[#   5]+0.051*[#  13]+0.045*[#  14]+0.015*[#   7]
          +0.015*[#   8]+0.002*[#   2]+0.002*[#  15]+0.002*[#  16]+0.001*[#   1]
          
    |psi|^2 = 0.292
==== e(  14) =     7.29896 eV ==== 
     psi = 0.148*[#   3]+0.148*[#   4]+0.148*[#  11]+0.148*[#  12]+0.146*[#   9]
          +0.145*[#   1]+0.002*[#   6]
    |psi|^2 = 0.887
==== e(  15) =     7.64473 eV ==== 
     psi = 0.195*[#   6]+0.127*[#  14]+0.034*[#   2]+0.023*[#  10]+0.005*[#   9]
          +0.005*[#   1]+0.003*[#   3]+0.003*[#   4]+0.002*[#  11]+0.002*[#  12]
          +0.001*[#   5]+0.001*[#  13]
    |psi|^2 = 0.401
==== e(  16) =     7.85129 eV ==== 
     psi = 0.452*[#  10]+0.440*[#   2]+0.016*[#   6]+0.011*[#  14]+0.002*[#   7]
          +0.002*[#   8]
    |psi|^2 = 0.925
==== e(  17) =     8.64204 eV ==== 
     psi = 0.062*[#   5]+0.053*[#  13]+0.031*[#   7]+0.031*[#   8]+0.029*[#  14]
          +0.027*[#   6]+0.009*[#  10]+0.007*[#   2]+0.004*[#  15]+0.004*[#  16]
          
    |psi|^2 = 0.261
==== e(  18) =     9.40946 eV ==== 
     psi = 0.190*[#   7]+0.190*[#   8]+0.083*[#   5]+0.075*[#  13]+0.044*[#  15]
          +0.044*[#  16]+0.002*[#  10]
    |psi|^2 = 0.629
==== e(  19) =     9.72259 eV ==== 
     psi = 0.123*[#  14]+0.108*[#   6]+0.006*[#   7]+0.006*[#   8]+0.003*[#   5]
          +0.002*[#   2]+0.002*[#  11]+0.002*[#  12]+0.002*[#  13]+0.002*[#  15]
          +0.002*[#  16]+0.001*[#   3]+0.001*[#   4]
    |psi|^2 = 0.261
==== e(  20) =    10.27976 eV ==== 
     psi = 0.234*[#   3]+0.234*[#   4]+0.234*[#  11]+0.234*[#  12]
    |psi|^2 = 0.937

 k =   0.0000000000  0.2309401077  0.0000000000
==== e(   1) =   -19.29261 eV ==== 
     psi = 0.245*[#  13]+0.191*[#   1]+0.191*[#   9]+0.123*[#   5]+0.049*[#   7]
          +0.049*[#   8]+0.029*[#   3]+0.029*[#   4]+0.029*[#  11]+0.029*[#  12]
          +0.009*[#  15]+0.009*[#  16]+0.001*[#   6]
    |psi|^2 = 0.985
==== e(   2) =   -19.14293 eV ==== 
     psi = 0.263*[#  13]+0.188*[#   9]+0.188*[#   1]+0.131*[#   5]+0.046*[#   7]
          +0.046*[#   8]+0.027*[#   3]+0.027*[#   4]+0.027*[#  11]+0.027*[#  12]
          +0.009*[#  15]+0.009*[#  16]
    |psi|^2 = 0.990
==== e(   3) =    -7.49541 eV ==== 
     psi = 0.375*[#   2]+0.374*[#  10]+0.121*[#  14]+0.102*[#   6]+0.002*[#  13]
          
    |psi|^2 = 0.978
==== e(   4) =    -6.98671 eV ==== 
     psi = 0.213*[#  11]+0.213*[#  12]+0.213*[#   3]+0.213*[#   4]+0.070*[#   1]
          +0.070*[#   9]
    |psi|^2 = 0.994
==== e(   5) =    -6.30289 eV ==== 
     psi = 0.330*[#  14]+0.212*[#   6]+0.111*[#  15]+0.111*[#  16]+0.068*[#   2]
          +0.068*[#  10]+0.026*[#   5]+0.022*[#   7]+0.022*[#   8]+0.019*[#  13]
          
    |psi|^2 = 0.990
==== e(   6) =    -6.21612 eV ==== 
     psi = 0.243*[#  15]+0.243*[#  16]+0.134*[#  14]+0.082*[#   6]+0.062*[#   5]
          +0.049*[#   7]+0.049*[#   8]+0.047*[#  10]+0.046*[#   2]+0.033*[#  13]
          
    |psi|^2 = 0.989
==== e(   7) =    -5.38111 eV ==== 
     psi = 0.249*[#  11]+0.249*[#  12]+0.249*[#   3]+0.249*[#   4]
    |psi|^2 = 0.997
==== e(   8) =    -4.78189 eV ==== 
     psi = 0.362*[#  15]+0.362*[#  16]+0.137*[#   7]+0.137*[#   8]
    |psi|^2 = 0.997
==== e(   9) =     3.56518 eV ==== 
     psi = 0.057*[#  13]+0.044*[#   5]+0.035*[#   7]+0.035*[#   8]+0.013*[#   6]
          +0.004*[#   3]+0.004*[#   4]+0.004*[#  11]+0.004*[#  12]+0.002*[#  14]
          +0.001*[#  10]+0.001*[#   2]+0.001*[#  15]+0.001*[#  16]
    |psi|^2 = 0.206
==== e(  10) =     4.00273 eV ==== 
     psi = 0.069*[#   6]+0.022*[#  14]+0.015*[#  13]+0.011*[#   5]+0.010*[#   7]
          +0.010*[#   8]+0.003*[#   2]+0.003*[#  10]+0.002*[#   3]+0.002*[#   4]
          +0.002*[#  11]+0.002*[#  12]
    |psi|^2 = 0.150
==== e(  11) =     5.19323 eV ==== 
     psi = 0.012*[#   5]+0.012*[#  13]+0.005*[#   7]+0.005*[#   8]+0.003*[#   6]
          +0.002*[#  14]
    |psi|^2 = 0.041
==== e(  12) =     6.22144 eV ==== 
     psi = 0.099*[#   6]+0.049*[#  14]+0.001*[#   1]+0.001*[#   9]
    |psi|^2 = 0.152
==== e(  13) =     6.31290 eV ==== 
     psi = 0.070*[#   6]+0.061*[#   5]+0.054*[#  13]+0.033*[#  14]+0.017*[#   7]
          +0.017*[#   8]+0.004*[#   2]+0.002*[#  10]+0.002*[#  15]+0.002*[#  16]
          +0.001*[#   1]+0.001*[#   9]
    |psi|^2 = 0.266
==== e(  14) =     7.24952 eV ==== 
     psi = 0.167*[#   9]+0.166*[#   1]+0.140*[#   3]+0.140*[#   4]+0.139*[#  11]
          +0.139*[#  12]
    |psi|^2 = 0.893
==== e(  15) =     7.44454 eV ==== 
     psi = 0.456*[#   2]+0.453*[#  10]+0.008*[#   6]+0.007*[#  14]
    |psi|^2 = 0.926
==== e(  16) =     7.69953 eV ==== 
     psi = 0.218*[#   6]+0.149*[#  14]+0.023*[#  10]+0.016*[#   2]+0.003*[#   9]
          +0.003*[#   1]
    |psi|^2 = 0.415
==== e(  17) =     8.72915 eV ==== 
     psi = 0.081*[#   5]+0.068*[#  13]+0.050*[#   7]+0.050*[#   8]+0.026*[#  14]
          +0.022*[#   6]+0.008*[#  15]+0.008*[#  16]+0.007*[#  10]+0.005*[#   2]
          
    |psi|^2 = 0.327
==== e(  18) =     9.43776 eV ==== 
     psi = 0.164*[#   7]+0.164*[#   8]+0.078*[#   5]+0.069*[#  13]+0.039*[#  15]
          +0.039*[#  16]+0.003*[#  14]+0.002*[#   6]+0.001*[#  10]
    |psi|^2 = 0.559
==== e(  19) =     9.70802 eV ==== 
     psi = 0.089*[#  14]+0.075*[#   6]+0.002*[#  11]+0.002*[#  12]+0.002*[#   2]
          +0.002*[#   3]+0.002*[#   4]+0.001*[#   7]+0.001*[#   8]
    |psi|^2 = 0.179
==== e(  20) =    10.75562 eV ==== 
     psi = 0.234*[#   3]+0.234*[#   4]+0.234*[#  11]+0.234*[#  12]
    |psi|^2 = 0.935

 k =   0.0000000000  0.2501851166  0.0000000000
==== e(   1) =   -19.14959 eV ==== 
     psi = 0.297*[#  13]+0.146*[#   1]+0.146*[#   9]+0.139*[#   5]+0.064*[#   7]
          +0.064*[#   8]+0.025*[#   3]+0.025*[#   4]+0.025*[#  11]+0.025*[#  12]
          +0.012*[#  15]+0.012*[#  16]
    |psi|^2 = 0.986
==== e(   2) =   -18.99966 eV ==== 
     psi = 0.221*[#   9]+0.221*[#   1]+0.208*[#  13]+0.097*[#   5]+0.039*[#   7]
          +0.039*[#   8]+0.036*[#   3]+0.036*[#   4]+0.036*[#  11]+0.036*[#  12]
          +0.008*[#  15]+0.008*[#  16]
    |psi|^2 = 0.989
==== e(   3) =    -7.40275 eV ==== 
     psi = 0.209*[#  11]+0.209*[#  12]+0.208*[#   3]+0.208*[#   4]+0.078*[#   9]
          +0.077*[#   1]+0.001*[#   2]+0.001*[#  10]
    |psi|^2 = 0.994
==== e(   4) =    -7.31202 eV ==== 
     psi = 0.372*[#   2]+0.371*[#  10]+0.121*[#  14]+0.100*[#   6]+0.004*[#  15]
          +0.004*[#  16]+0.003*[#  13]
    |psi|^2 = 0.980
==== e(   5) =    -6.60470 eV ==== 
     psi = 0.344*[#  15]+0.344*[#  16]+0.094*[#   5]+0.067*[#   7]+0.067*[#   8]
          +0.055*[#  13]+0.009*[#  14]+0.007*[#   6]+0.001*[#   2]+0.001*[#  10]
          
    |psi|^2 = 0.993
==== e(   6) =    -6.10009 eV ==== 
     psi = 0.462*[#  14]+0.285*[#   6]+0.116*[#  10]+0.115*[#   2]+0.003*[#  15]
          +0.003*[#  16]
    |psi|^2 = 0.988
==== e(   7) =    -5.55422 eV ==== 
     psi = 0.249*[#  11]+0.249*[#  12]+0.249*[#   3]+0.249*[#   4]
    |psi|^2 = 0.997
==== e(   8) =    -4.93156 eV ==== 
     psi = 0.359*[#  15]+0.359*[#  16]+0.140*[#   7]+0.140*[#   8]
    |psi|^2 = 0.997
==== e(   9) =     3.77879 eV ==== 
     psi = 0.057*[#  13]+0.043*[#   5]+0.035*[#   7]+0.035*[#   8]+0.013*[#   6]
          +0.004*[#   3]+0.004*[#   4]+0.004*[#  11]+0.004*[#  12]+0.002*[#  14]
          +0.001*[#  10]+0.001*[#  15]+0.001*[#  16]
    |psi|^2 = 0.207
==== e(  10) =     4.20782 eV ==== 
     psi = 0.072*[#   6]+0.024*[#  14]+0.015*[#  13]+0.010*[#   7]+0.010*[#   8]
          +0.010*[#   5]+0.003*[#   2]+0.003*[#  10]+0.002*[#   3]+0.002*[#   4]
          +0.002*[#  11]+0.002*[#  12]
    |psi|^2 = 0.154
==== e(  11) =     5.41243 eV ==== 
     psi = 0.013*[#   5]+0.013*[#  13]+0.005*[#   7]+0.005*[#   8]+0.005*[#   6]
          +0.002*[#  14]
    |psi|^2 = 0.045
==== e(  12) =     6.36099 eV ==== 
     psi = 0.197*[#   6]+0.102*[#  14]+0.012*[#   5]+0.010*[#  13]+0.004*[#   1]
          +0.003*[#   9]+0.003*[#   7]+0.003*[#   8]+0.002*[#   2]+0.002*[#  10]
          +0.001*[#  11]+0.001*[#  12]
    |psi|^2 = 0.343
==== e(  13) =     6.48676 eV ==== 
     psi = 0.047*[#   5]+0.041*[#  13]+0.016*[#   2]+0.014*[#   7]+0.014*[#   8]
          +0.014*[#   6]+0.012*[#  10]+0.006*[#  14]+0.001*[#  15]+0.001*[#  16]
          
    |psi|^2 = 0.171
==== e(  14) =     7.05782 eV ==== 
     psi = 0.458*[#  10]+0.454*[#   2]+0.002*[#   6]+0.002*[#  14]+0.001*[#   7]
          +0.001*[#   8]+0.001*[#  13]
    |psi|^2 = 0.925
==== e(  15) =     7.19479 eV ==== 
     psi = 0.185*[#   9]+0.184*[#   1]+0.129*[#   3]+0.129*[#   4]+0.128*[#  11]
          +0.128*[#  12]+0.002*[#  14]+0.002*[#   6]+0.001*[#  10]+0.001*[#   5]
          +0.001*[#  13]
    |psi|^2 = 0.895
==== e(  16) =     7.69801 eV ==== 
     psi = 0.218*[#   6]+0.157*[#  14]+0.004*[#  10]+0.003*[#   2]+0.002*[#   5]
          +0.001*[#   9]+0.001*[#   1]
    |psi|^2 = 0.388
==== e(  17) =     8.79859 eV ==== 
     psi = 0.103*[#   5]+0.085*[#  13]+0.072*[#   7]+0.072*[#   8]+0.017*[#  14]
          +0.013*[#   6]+0.012*[#  15]+0.012*[#  16]+0.006*[#  10]+0.003*[#   2]
          
    |psi|^2 = 0.397
==== e(  18) =     9.48541 eV ==== 
     psi = 0.130*[#   7]+0.130*[#   8]+0.066*[#   5]+0.057*[#  13]+0.031*[#  15]
          +0.031*[#  16]+0.013*[#  14]+0.010*[#   6]+0.002*[#   2]
    |psi|^2 = 0.474
==== e(  19) =     9.75741 eV ==== 
     psi = 0.051*[#  14]+0.040*[#   6]+0.002*[#  11]+0.002*[#  12]+0.002*[#   3]
          +0.002*[#   4]+0.001*[#   2]+0.001*[#   7]+0.001*[#   8]
    |psi|^2 = 0.105
==== e(  20) =    11.25184 eV ==== 
     psi = 0.233*[#   3]+0.233*[#   4]+0.233*[#  11]+0.233*[#  12]
    |psi|^2 = 0.933

 k =   0.0000000000  0.2694301256  0.0000000000
==== e(   1) =   -19.00024 eV ==== 
     psi = 0.351*[#  13]+0.153*[#   5]+0.103*[#   1]+0.103*[#   9]+0.081*[#   7]
          +0.081*[#   8]+0.020*[#   3]+0.020*[#   4]+0.020*[#  11]+0.020*[#  12]
          +0.016*[#  15]+0.016*[#  16]
    |psi|^2 = 0.986
==== e(   2) =   -18.84207 eV ==== 
     psi = 0.253*[#   9]+0.253*[#   1]+0.152*[#  13]+0.066*[#   5]+0.047*[#   3]
          +0.047*[#   4]+0.047*[#  11]+0.047*[#  12]+0.031*[#   7]+0.031*[#   8]
          +0.006*[#  15]+0.006*[#  16]
    |psi|^2 = 0.988
==== e(   3) =    -7.82625 eV ==== 
     psi = 0.205*[#  11]+0.205*[#  12]+0.205*[#   3]+0.205*[#   4]+0.086*[#   9]
          +0.086*[#   1]
    |psi|^2 = 0.993
==== e(   4) =    -7.14353 eV ==== 
     psi = 0.310*[#   2]+0.308*[#  10]+0.095*[#  14]+0.076*[#   6]+0.067*[#  15]
          +0.067*[#  16]+0.019*[#   5]+0.018*[#  13]+0.012*[#   7]+0.012*[#   8]
          
    |psi|^2 = 0.985
==== e(   5) =    -6.93768 eV ==== 
     psi = 0.279*[#  15]+0.279*[#  16]+0.084*[#   5]+0.066*[#  10]+0.065*[#   2]
          +0.054*[#   7]+0.054*[#   8]+0.044*[#  13]+0.035*[#  14]+0.028*[#   6]
          
    |psi|^2 = 0.991
==== e(   6) =    -5.91834 eV ==== 
     psi = 0.471*[#  14]+0.282*[#   6]+0.117*[#  10]+0.116*[#   2]
    |psi|^2 = 0.989
==== e(   7) =    -5.72426 eV ==== 
     psi = 0.249*[#  11]+0.249*[#  12]+0.249*[#   3]+0.249*[#   4]
    |psi|^2 = 0.997
==== e(   8) =    -5.07955 eV ==== 
     psi = 0.356*[#  15]+0.356*[#  16]+0.142*[#   7]+0.142*[#   8]
    |psi|^2 = 0.997
==== e(   9) =     4.00815 eV ==== 
     psi = 0.058*[#  13]+0.044*[#   5]+0.036*[#   7]+0.036*[#   8]+0.013*[#   6]
          +0.004*[#   3]+0.004*[#   4]+0.004*[#  11]+0.004*[#  12]+0.002*[#  14]
          +0.001*[#  10]+0.001*[#  15]+0.001*[#  16]
    |psi|^2 = 0.208
==== e(  10) =     4.42406 eV ==== 
     psi = 0.079*[#   6]+0.028*[#  14]+0.014*[#  13]+0.010*[#   7]+0.010*[#   8]
          +0.009*[#   5]+0.003*[#   2]+0.003*[#  10]+0.002*[#   3]+0.002*[#   4]
          +0.002*[#  11]+0.002*[#  12]
    |psi|^2 = 0.163
==== e(  11) =     5.64674 eV ==== 
     psi = 0.015*[#   5]+0.014*[#  13]+0.008*[#   6]+0.006*[#   7]+0.006*[#   8]
          +0.004*[#  14]
    |psi|^2 = 0.055
==== e(  12) =     6.42269 eV ==== 
     psi = 0.242*[#   6]+0.131*[#  14]+0.056*[#   2]+0.052*[#  10]+0.021*[#   5]
          +0.017*[#  13]+0.006*[#   1]+0.005*[#   7]+0.005*[#   8]+0.005*[#   9]
          +0.002*[#  11]+0.002*[#  12]+0.002*[#   3]+0.002*[#   4]
    |psi|^2 = 0.551
==== e(  13) =     6.56935 eV ==== 
     psi = 0.275*[#   2]+0.271*[#  10]+0.021*[#   6]+0.012*[#  14]+0.008*[#  13]
          +0.008*[#   5]+0.004*[#   7]+0.004*[#   8]
    |psi|^2 = 0.606
==== e(  14) =     6.79568 eV ==== 
     psi = 0.150*[#  10]+0.141*[#   2]+0.029*[#   5]+0.025*[#  13]+0.009*[#   7]
          +0.009*[#   8]+0.006*[#   6]+0.003*[#  14]+0.001*[#   1]+0.001*[#  11]
          +0.001*[#  12]
    |psi|^2 = 0.381
==== e(  15) =     7.13365 eV ==== 
     psi = 0.202*[#   9]+0.200*[#   1]+0.118*[#   3]+0.118*[#   4]+0.117*[#  11]
          +0.117*[#  12]+0.010*[#   6]+0.009*[#  14]+0.002*[#   5]+0.002*[#  13]
          
    |psi|^2 = 0.898
==== e(  16) =     7.69412 eV ==== 
     psi = 0.177*[#   6]+0.134*[#  14]+0.007*[#   5]+0.004*[#  13]+0.002*[#   2]
          +0.002*[#  10]+0.001*[#   7]+0.001*[#   8]
    |psi|^2 = 0.332
==== e(  17) =     8.85626 eV ==== 
     psi = 0.123*[#   5]+0.100*[#  13]+0.094*[#   7]+0.094*[#   8]+0.016*[#  15]
          +0.016*[#  16]+0.008*[#  14]+0.005*[#   6]+0.005*[#  10]+0.002*[#   2]
          
    |psi|^2 = 0.463
==== e(  18) =     9.54841 eV ==== 
     psi = 0.093*[#   7]+0.093*[#   8]+0.049*[#   5]+0.043*[#  13]+0.023*[#  15]
          +0.023*[#  16]+0.019*[#  14]+0.013*[#   6]+0.004*[#   2]
    |psi|^2 = 0.360
==== e(  19) =     9.88371 eV ==== 
     psi = 0.024*[#  14]+0.017*[#   6]+0.006*[#   7]+0.006*[#   8]+0.003*[#   5]
          +0.002*[#  13]+0.002*[#  11]+0.002*[#  12]+0.002*[#   3]+0.002*[#   4]
          +0.002*[#  15]+0.002*[#  16]
    |psi|^2 = 0.070
==== e(  20) =    11.76559 eV ==== 
     psi = 0.233*[#   3]+0.233*[#   4]+0.232*[#  11]+0.232*[#  12]
    |psi|^2 = 0.930

 k =   0.0000000000  0.2886751346  0.0000000000
==== e(   1) =   -18.84579 eV ==== 
     psi = 0.398*[#  13]+0.161*[#   5]+0.097*[#   7]+0.097*[#   8]+0.068*[#   1]
          +0.068*[#   9]+0.019*[#  15]+0.019*[#  16]+0.015*[#   3]+0.015*[#   4]
          +0.015*[#  11]+0.015*[#  12]
    |psi|^2 = 0.987
==== e(   2) =   -18.66966 eV ==== 
     psi = 0.278*[#   9]+0.278*[#   1]+0.105*[#  13]+0.058*[#   3]+0.058*[#   4]
          +0.058*[#  11]+0.058*[#  12]+0.042*[#   5]+0.022*[#   7]+0.022*[#   8]
          +0.004*[#  15]+0.004*[#  16]
    |psi|^2 = 0.987
==== e(   3) =    -8.25558 eV ==== 
     psi = 0.201*[#  11]+0.201*[#  12]+0.201*[#   3]+0.201*[#   4]+0.093*[#   9]
          +0.093*[#   1]
    |psi|^2 = 0.993
==== e(   4) =    -7.36336 eV ==== 
     psi = 0.332*[#  15]+0.332*[#  16]+0.107*[#   5]+0.064*[#  13]+0.062*[#   7]
          +0.062*[#   8]+0.015*[#   2]+0.015*[#  10]+0.002*[#  14]+0.002*[#   6]
          
    |psi|^2 = 0.993
==== e(   5) =    -6.87245 eV ==== 
     psi = 0.360*[#   2]+0.359*[#  10]+0.130*[#  14]+0.101*[#   6]+0.012*[#  15]
          +0.012*[#  16]+0.004*[#   5]+0.003*[#   7]+0.003*[#   8]
    |psi|^2 = 0.985
==== e(   6) =    -5.88979 eV ==== 
     psi = 0.249*[#  11]+0.249*[#  12]+0.249*[#   3]+0.249*[#   4]
    |psi|^2 = 0.997
==== e(   7) =    -5.72466 eV ==== 
     psi = 0.477*[#  14]+0.276*[#   6]+0.118*[#  10]+0.117*[#   2]
    |psi|^2 = 0.991
==== e(   8) =    -5.22448 eV ==== 
     psi = 0.354*[#  15]+0.354*[#  16]+0.145*[#   7]+0.145*[#   8]
    |psi|^2 = 0.997
==== e(   9) =     4.25279 eV ==== 
     psi = 0.058*[#  13]+0.045*[#   5]+0.036*[#   7]+0.036*[#   8]+0.014*[#   6]
          +0.003*[#   3]+0.003*[#   4]+0.003*[#  11]+0.003*[#  12]+0.002*[#  14]
          +0.002*[#  15]+0.002*[#  16]+0.001*[#  10]
    |psi|^2 = 0.210
==== e(  10) =     4.64606 eV ==== 
     psi = 0.092*[#   6]+0.035*[#  14]+0.012*[#  13]+0.009*[#   7]+0.009*[#   8]
          +0.008*[#   5]+0.005*[#   2]+0.005*[#  10]+0.002*[#   3]+0.002*[#   4]
          +0.002*[#  11]+0.002*[#  12]
    |psi|^2 = 0.182
==== e(  11) =     5.88951 eV ==== 
     psi = 0.021*[#   6]+0.019*[#   5]+0.017*[#  13]+0.011*[#  14]+0.007*[#   2]
          +0.007*[#  10]+0.007*[#   7]+0.007*[#   8]
    |psi|^2 = 0.097
==== e(  12) =     6.16260 eV ==== 
     psi = 0.430*[#   2]+0.427*[#  10]+0.019*[#   6]+0.011*[#  14]+0.002*[#   5]
          +0.001*[#  13]
    |psi|^2 = 0.892
==== e(  13) =     6.46754 eV ==== 
     psi = 0.303*[#   6]+0.171*[#  14]+0.024*[#  10]+0.022*[#   2]+0.012*[#   5]
          +0.012*[#  13]+0.009*[#   1]+0.008*[#   9]+0.005*[#   7]+0.005*[#   8]
          +0.004*[#  11]+0.004*[#  12]+0.004*[#   3]+0.004*[#   4]
    |psi|^2 = 0.586
==== e(  14) =     6.98043 eV ==== 
     psi = 0.038*[#   5]+0.030*[#  13]+0.014*[#  10]+0.012*[#   2]+0.011*[#   7]
          +0.011*[#   8]+0.007*[#   1]+0.007*[#   9]+0.005*[#  11]+0.005*[#  12]
          +0.005*[#   3]+0.005*[#   4]+0.001*[#  15]+0.001*[#  16]
    |psi|^2 = 0.151
==== e(  15) =     7.06355 eV ==== 
     psi = 0.210*[#   9]+0.208*[#   1]+0.104*[#   3]+0.104*[#   4]+0.102*[#  11]
          +0.102*[#  12]+0.020*[#   6]+0.017*[#  14]+0.004*[#   5]+0.004*[#  13]
          
    |psi|^2 = 0.878
==== e(  16) =     7.72538 eV ==== 
     psi = 0.111*[#   6]+0.090*[#  14]+0.016*[#   5]+0.010*[#  13]+0.003*[#   7]
          +0.003*[#   8]+0.002*[#  11]+0.002*[#  12]+0.002*[#   3]+0.002*[#   4]
          +0.002*[#   2]+0.001*[#  10]
    |psi|^2 = 0.249
==== e(  17) =     8.90645 eV ==== 
     psi = 0.138*[#   5]+0.111*[#  13]+0.111*[#   7]+0.111*[#   8]+0.019*[#  15]
          +0.019*[#  16]+0.003*[#  10]+0.003*[#  14]+0.001*[#   2]+0.001*[#   6]
          
    |psi|^2 = 0.519
==== e(  18) =     9.64212 eV ==== 
     psi = 0.061*[#   7]+0.061*[#   8]+0.033*[#   5]+0.029*[#  13]+0.017*[#  14]
          +0.016*[#  15]+0.016*[#  16]+0.010*[#   6]+0.004*[#   2]+0.001*[#  10]
          
    |psi|^2 = 0.250
==== e(  19) =    10.06931 eV ==== 
     psi = 0.011*[#  14]+0.008*[#   7]+0.008*[#   8]+0.008*[#   6]+0.005*[#   5]
          +0.004*[#  13]+0.003*[#  15]+0.003*[#  16]+0.002*[#  11]+0.002*[#  12]
          +0.001*[#   3]+0.001*[#   4]
    |psi|^2 = 0.056
==== e(  20) =    12.29334 eV ==== 
     psi = 0.232*[#   3]+0.232*[#   4]+0.232*[#  11]+0.232*[#  12]
    |psi|^2 = 0.929

 k =   0.0000000000  0.3079201436  0.0000000000
==== e(   1) =   -18.68691 eV ==== 
     psi = 0.434*[#  13]+0.162*[#   5]+0.111*[#   7]+0.111*[#   8]+0.043*[#   1]
          +0.043*[#   9]+0.021*[#  15]+0.021*[#  16]+0.010*[#   3]+0.010*[#   4]
          +0.011*[#  11]+0.011*[#  12]
    |psi|^2 = 0.987
==== e(   2) =   -18.48259 eV ==== 
     psi = 0.293*[#   9]+0.293*[#   1]+0.069*[#  13]+0.067*[#   3]+0.067*[#   4]
          +0.067*[#  11]+0.067*[#  12]+0.026*[#   5]+0.015*[#   7]+0.015*[#   8]
          +0.003*[#  15]+0.003*[#  16]
    |psi|^2 = 0.986
==== e(   3) =    -8.68850 eV ==== 
     psi = 0.198*[#  11]+0.198*[#  12]+0.197*[#   3]+0.197*[#   4]+0.101*[#   9]
          +0.100*[#   1]
    |psi|^2 = 0.993
==== e(   4) =    -7.72435 eV ==== 
     psi = 0.338*[#  15]+0.338*[#  16]+0.118*[#   5]+0.067*[#  13]+0.062*[#   7]
          +0.062*[#   8]+0.004*[#   2]+0.004*[#  10]
    |psi|^2 = 0.993
==== e(   5) =    -6.65341 eV ==== 
     psi = 0.371*[#   2]+0.370*[#  10]+0.136*[#  14]+0.102*[#   6]+0.003*[#  15]
          +0.003*[#  16]+0.001*[#   5]
    |psi|^2 = 0.987
==== e(   6) =    -6.04925 eV ==== 
     psi = 0.249*[#  11]+0.249*[#  12]+0.249*[#   3]+0.249*[#   4]
    |psi|^2 = 0.997
==== e(   7) =    -5.52065 eV ==== 
     psi = 0.484*[#  14]+0.269*[#   6]+0.120*[#  10]+0.118*[#   2]
    |psi|^2 = 0.992
==== e(   8) =    -5.36491 eV ==== 
     psi = 0.351*[#  15]+0.351*[#  16]+0.147*[#   7]+0.147*[#   8]
    |psi|^2 = 0.997
==== e(   9) =     4.51181 eV ==== 
     psi = 0.059*[#  13]+0.048*[#   5]+0.037*[#   7]+0.037*[#   8]+0.017*[#   6]
          +0.003*[#  14]+0.003*[#   3]+0.003*[#   4]+0.003*[#  11]+0.003*[#  12]
          +0.002*[#  15]+0.002*[#  16]+0.001*[#  10]
    |psi|^2 = 0.217
==== e(  10) =     4.85885 eV ==== 
     psi = 0.118*[#   6]+0.049*[#  14]+0.014*[#  10]+0.013*[#   2]+0.010*[#  13]
          +0.007*[#   7]+0.007*[#   8]+0.007*[#   5]+0.001*[#   3]+0.001*[#   4]
          +0.001*[#  11]+0.001*[#  12]
    |psi|^2 = 0.231
==== e(  11) =     5.73855 eV ==== 
     psi = 0.443*[#   2]+0.441*[#  10]+0.015*[#   6]+0.008*[#  14]+0.003*[#   5]
          +0.001*[#  13]
    |psi|^2 = 0.914
==== e(  12) =     6.13541 eV ==== 
     psi = 0.077*[#   6]+0.043*[#  14]+0.024*[#   5]+0.022*[#  13]+0.010*[#   7]
          +0.010*[#   8]+0.009*[#  10]+0.009*[#   2]+0.002*[#   1]+0.002*[#   9]
          
    |psi|^2 = 0.211
==== e(  13) =     6.41579 eV ==== 
     psi = 0.294*[#   6]+0.171*[#  14]+0.005*[#   1]+0.005*[#   9]+0.005*[#  13]
          +0.005*[#  10]+0.005*[#   5]+0.004*[#   2]+0.004*[#  11]+0.004*[#  12]
          +0.003*[#   3]+0.003*[#   4]+0.002*[#   7]+0.002*[#   8]
    |psi|^2 = 0.513
==== e(  14) =     6.97905 eV ==== 
     psi = 0.232*[#   9]+0.231*[#   1]+0.100*[#   3]+0.100*[#   4]+0.099*[#  11]
          +0.099*[#  12]+0.018*[#   6]+0.016*[#  14]
    |psi|^2 = 0.897
==== e(  15) =     7.23060 eV ==== 
     psi = 0.046*[#   5]+0.037*[#  13]+0.013*[#   7]+0.013*[#   8]+0.006*[#  10]
          +0.005*[#   2]+0.001*[#  15]+0.001*[#  16]
    |psi|^2 = 0.125
==== e(  16) =     7.82116 eV ==== 
     psi = 0.056*[#   6]+0.049*[#  14]+0.026*[#   5]+0.017*[#  13]+0.006*[#   7]
          +0.006*[#   8]+0.003*[#  11]+0.003*[#  12]+0.003*[#   3]+0.003*[#   4]
          +0.001*[#   2]+0.001*[#   1]+0.001*[#  10]+0.001*[#  15]+0.001*[#  16]
          
    |psi|^2 = 0.182
==== e(  17) =     8.95249 eV ==== 
     psi = 0.144*[#   5]+0.121*[#   7]+0.121*[#   8]+0.117*[#  13]+0.021*[#  15]
          +0.021*[#  16]+0.002*[#  10]
    |psi|^2 = 0.549
==== e(  18) =     9.77775 eV ==== 
     psi = 0.039*[#   7]+0.039*[#   8]+0.022*[#   5]+0.019*[#  13]+0.012*[#  14]
          +0.011*[#  15]+0.011*[#  16]+0.007*[#   6]+0.004*[#   2]+0.001*[#  10]
          
    |psi|^2 = 0.165
==== e(  19) =    10.29516 eV ==== 
     psi = 0.009*[#   7]+0.009*[#   8]+0.006*[#   5]+0.005*[#  14]+0.004*[#  13]
          +0.004*[#   6]+0.003*[#  15]+0.003*[#  16]+0.002*[#  11]+0.002*[#  12]
          +0.001*[#   3]+0.001*[#   4]
    |psi|^2 = 0.049
==== e(  20) =    12.62311 eV ==== 
     psi = 0.003*[#   5]+0.003*[#   2]+0.002*[#  10]+0.002*[#  14]+0.001*[#   6]
          +0.001*[#   1]+0.001*[#   9]
    |psi|^2 = 0.019

 k =   0.0000000000  0.3271651525  0.0000000000
==== e(   1) =   -18.52405 eV ==== 
     psi = 0.459*[#  13]+0.158*[#   5]+0.122*[#   7]+0.122*[#   8]+0.026*[#   1]
          +0.026*[#   9]+0.022*[#  15]+0.022*[#  16]+0.007*[#   3]+0.007*[#   4]
          +0.007*[#  11]+0.007*[#  12]
    |psi|^2 = 0.988
==== e(   2) =   -18.28138 eV ==== 
     psi = 0.301*[#   9]+0.300*[#   1]+0.075*[#   3]+0.075*[#   4]+0.075*[#  11]
          +0.075*[#  12]+0.044*[#  13]+0.015*[#   5]+0.010*[#   7]+0.010*[#   8]
          +0.002*[#  15]+0.002*[#  16]
    |psi|^2 = 0.986
==== e(   3) =    -9.12305 eV ==== 
     psi = 0.194*[#  11]+0.194*[#  12]+0.194*[#   3]+0.194*[#   4]+0.108*[#   9]
          +0.107*[#   1]
    |psi|^2 = 0.992
==== e(   4) =    -8.08835 eV ==== 
     psi = 0.337*[#  15]+0.337*[#  16]+0.126*[#   5]+0.068*[#  13]+0.061*[#   7]
          +0.061*[#   8]+0.002*[#   2]+0.002*[#  10]
    |psi|^2 = 0.993
==== e(   5) =    -6.41653 eV ==== 
     psi = 0.372*[#   2]+0.371*[#  10]+0.140*[#  14]+0.101*[#   6]+0.001*[#  15]
          +0.001*[#  16]
    |psi|^2 = 0.989
==== e(   6) =    -6.20147 eV ==== 
     psi = 0.249*[#  11]+0.249*[#  12]+0.249*[#   3]+0.249*[#   4]
    |psi|^2 = 0.997
==== e(   7) =    -5.49969 eV ==== 
     psi = 0.349*[#  15]+0.349*[#  16]+0.150*[#   7]+0.150*[#   8]
    |psi|^2 = 0.997
==== e(   8) =    -5.30752 eV ==== 
     psi = 0.491*[#  14]+0.260*[#   6]+0.121*[#  10]+0.120*[#   2]
    |psi|^2 = 0.993
==== e(   9) =     4.78212 eV ==== 
     psi = 0.062*[#  13]+0.053*[#   5]+0.038*[#   7]+0.038*[#   8]+0.029*[#   6]
          +0.008*[#  14]+0.003*[#  10]+0.002*[#   3]+0.002*[#   4]+0.002*[#  11]
          +0.002*[#  12]+0.002*[#  15]+0.002*[#  16]
    |psi|^2 = 0.242
==== e(  10) =     4.98996 eV ==== 
     psi = 0.133*[#   6]+0.121*[#  10]+0.115*[#   2]+0.061*[#  14]+0.004*[#  13]
          +0.003*[#   7]+0.003*[#   8]+0.002*[#   5]+0.001*[#   3]+0.001*[#   4]
          +0.001*[#  11]+0.001*[#  12]
    |psi|^2 = 0.446
==== e(  11) =     5.37239 eV ==== 
     psi = 0.351*[#   2]+0.343*[#  10]+0.055*[#   6]+0.025*[#  14]+0.001*[#   5]
          
    |psi|^2 = 0.778
==== e(  12) =     6.18243 eV ==== 
     psi = 0.306*[#   6]+0.177*[#  14]+0.028*[#   5]+0.027*[#  13]+0.013*[#   7]
          +0.013*[#   8]+0.006*[#  10]+0.005*[#   1]+0.005*[#   2]+0.005*[#   9]
          +0.003*[#  11]+0.003*[#  12]+0.002*[#   3]+0.002*[#   4]
    |psi|^2 = 0.596
==== e(  13) =     6.52397 eV ==== 
     psi = 0.049*[#   6]+0.030*[#  14]+0.004*[#   5]+0.003*[#  13]
    |psi|^2 = 0.091
==== e(  14) =     6.89868 eV ==== 
     psi = 0.249*[#   9]+0.248*[#   1]+0.094*[#   3]+0.094*[#   4]+0.094*[#  11]
          +0.094*[#  12]+0.010*[#   6]+0.009*[#  14]
    |psi|^2 = 0.893
==== e(  15) =     7.48900 eV ==== 
     psi = 0.059*[#   5]+0.044*[#  13]+0.016*[#   7]+0.016*[#   8]+0.005*[#  10]
          +0.003*[#   2]+0.002*[#  15]+0.002*[#  16]
    |psi|^2 = 0.147
==== e(  16) =     7.97848 eV ==== 
     psi = 0.033*[#   5]+0.026*[#   6]+0.025*[#  14]+0.022*[#  13]+0.009*[#   7]
          +0.009*[#   8]+0.003*[#  11]+0.003*[#  12]+0.003*[#   3]+0.003*[#   4]
          +0.002*[#  15]+0.002*[#  16]+0.001*[#   1]+0.001*[#   9]
    |psi|^2 = 0.145
==== e(  17) =     9.00210 eV ==== 
     psi = 0.139*[#   5]+0.121*[#   7]+0.121*[#   8]+0.115*[#  13]+0.021*[#  15]
          +0.021*[#  16]+0.001*[#  10]
    |psi|^2 = 0.544
==== e(  18) =     9.95423 eV ==== 
     psi = 0.025*[#   7]+0.025*[#   8]+0.014*[#   5]+0.012*[#  13]+0.008*[#  14]
          +0.007*[#  15]+0.007*[#  16]+0.005*[#   6]+0.004*[#   2]+0.002*[#  10]
          
    |psi|^2 = 0.109
==== e(  19) =    10.55050 eV ==== 
     psi = 0.009*[#   7]+0.009*[#   8]+0.007*[#   5]+0.005*[#  13]+0.003*[#  15]
          +0.003*[#  16]+0.003*[#  14]+0.002*[#   6]+0.001*[#  11]+0.001*[#  12]
          +0.001*[#   3]+0.001*[#   4]
    |psi|^2 = 0.044
==== e(  20) =    12.83762 eV ==== 
     psi = 0.005*[#   5]+0.003*[#   2]+0.002*[#  10]+0.002*[#   6]+0.002*[#   1]
          +0.002*[#   9]+0.001*[#  14]+0.001*[#  13]+0.001*[#  15]+0.001*[#  16]
          
    |psi|^2 = 0.024

 k =   0.0000000000  0.3464101615  0.0000000000
==== e(   1) =   -18.35776 eV ==== 
     psi = 0.477*[#  13]+0.150*[#   5]+0.132*[#   7]+0.132*[#   8]+0.023*[#  15]
          +0.023*[#  16]+0.016*[#   1]+0.016*[#   9]+0.005*[#   3]+0.005*[#   4]
          +0.005*[#  11]+0.005*[#  12]
    |psi|^2 = 0.988
==== e(   2) =   -18.06673 eV ==== 
     psi = 0.302*[#   9]+0.302*[#   1]+0.082*[#   3]+0.082*[#   4]+0.082*[#  11]
          +0.082*[#  12]+0.029*[#  13]+0.009*[#   5]+0.006*[#   7]+0.006*[#   8]
          +0.001*[#  15]+0.001*[#  16]
    |psi|^2 = 0.985
==== e(   3) =    -9.55749 eV ==== 
     psi = 0.191*[#  11]+0.191*[#  12]+0.190*[#   3]+0.190*[#   4]+0.114*[#   9]
          +0.114*[#   1]
    |psi|^2 = 0.992
==== e(   4) =    -8.44825 eV ==== 
     psi = 0.335*[#  15]+0.335*[#  16]+0.133*[#   5]+0.067*[#  13]+0.059*[#   7]
          +0.059*[#   8]+0.001*[#   2]+0.001*[#  10]
    |psi|^2 = 0.993
==== e(   5) =    -6.34552 eV ==== 
     psi = 0.249*[#  11]+0.249*[#  12]+0.249*[#   3]+0.249*[#   4]
    |psi|^2 = 0.997
==== e(   6) =    -6.16703 eV ==== 
     psi = 0.372*[#   2]+0.371*[#  10]+0.146*[#  14]+0.100*[#   6]
    |psi|^2 = 0.991
==== e(   7) =    -5.62783 eV ==== 
     psi = 0.347*[#  15]+0.347*[#  16]+0.152*[#   7]+0.152*[#   8]
    |psi|^2 = 0.997
==== e(   8) =    -5.08663 eV ==== 
     psi = 0.499*[#  14]+0.250*[#   6]+0.123*[#  10]+0.122*[#   2]
    |psi|^2 = 0.994
==== e(   9) =     4.74436 eV ==== 
     psi = 0.396*[#  10]+0.386*[#   2]+0.053*[#   6]+0.024*[#  14]+0.005*[#  13]
          +0.004*[#   5]+0.003*[#   7]+0.003*[#   8]
    |psi|^2 = 0.876
==== e(  10) =     5.06107 eV ==== 
     psi = 0.059*[#   6]+0.055*[#  13]+0.051*[#   5]+0.033*[#   7]+0.033*[#   8]
          +0.020*[#  14]+0.013*[#  10]+0.012*[#   2]+0.002*[#  15]+0.002*[#  16]
          +0.002*[#   3]+0.002*[#   4]+0.002*[#  11]+0.002*[#  12]
    |psi|^2 = 0.289
==== e(  11) =     5.28998 eV ==== 
     psi = 0.256*[#   6]+0.126*[#  14]+0.071*[#   2]+0.059*[#  10]
    |psi|^2 = 0.518
==== e(  12) =     6.12388 eV ==== 
     psi = 0.224*[#   6]+0.132*[#  14]+0.027*[#   5]+0.027*[#  13]+0.014*[#   7]
          +0.014*[#   8]+0.005*[#  10]+0.003*[#   1]+0.003*[#   2]+0.003*[#  11]
          +0.003*[#  12]+0.002*[#   9]+0.002*[#   3]+0.002*[#   4]
    |psi|^2 = 0.460
==== e(  13) =     6.77327 eV ==== 
     psi = 0.102*[#   9]+0.102*[#   1]+0.029*[#   3]+0.029*[#   4]+0.029*[#  11]
          +0.029*[#  12]+0.013*[#   6]+0.011*[#  14]+0.007*[#   5]+0.005*[#  13]
          +0.002*[#   7]+0.002*[#   8]
    |psi|^2 = 0.361
==== e(  14) =     6.85063 eV ==== 
     psi = 0.162*[#   9]+0.161*[#   1]+0.060*[#   3]+0.060*[#   4]+0.060*[#  11]
          +0.060*[#  12]+0.005*[#   5]+0.004*[#  13]+0.001*[#   7]+0.001*[#   8]
          
    |psi|^2 = 0.576
==== e(  15) =     7.74636 eV ==== 
     psi = 0.081*[#   5]+0.058*[#  13]+0.023*[#   7]+0.023*[#   8]+0.004*[#  10]
          +0.003*[#   2]+0.003*[#  15]+0.003*[#  16]
    |psi|^2 = 0.198
==== e(  16) =     8.18260 eV ==== 
     psi = 0.034*[#   5]+0.023*[#  13]+0.012*[#  14]+0.012*[#   6]+0.011*[#   7]
          +0.011*[#   8]+0.003*[#   3]+0.003*[#   4]+0.003*[#  11]+0.003*[#  12]
          +0.002*[#  15]+0.002*[#  16]+0.001*[#   1]+0.001*[#   9]
    |psi|^2 = 0.122
==== e(  17) =     9.06811 eV ==== 
     psi = 0.124*[#   5]+0.113*[#   7]+0.113*[#   8]+0.106*[#  13]+0.020*[#  15]
          +0.020*[#  16]
    |psi|^2 = 0.501
==== e(  18) =    10.16517 eV ==== 
     psi = 0.016*[#   7]+0.016*[#   8]+0.010*[#   5]+0.008*[#  13]+0.005*[#  14]
          +0.005*[#  15]+0.005*[#  16]+0.004*[#   2]+0.004*[#   6]+0.002*[#  10]
          
    |psi|^2 = 0.075
==== e(  19) =    10.82960 eV ==== 
     psi = 0.008*[#   7]+0.008*[#   8]+0.008*[#   5]+0.005*[#  13]+0.003*[#  15]
          +0.003*[#  16]+0.001*[#   6]+0.002*[#  14]+0.001*[#  11]+0.001*[#  12]
          
    |psi|^2 = 0.041
==== e(  20) =    13.06201 eV ==== 
     psi = 0.007*[#   5]+0.003*[#   2]+0.002*[#  10]+0.002*[#   6]+0.002*[#   1]
          +0.002*[#   9]+0.002*[#  13]+0.002*[#  15]+0.002*[#  16]+0.002*[#   7]
          +0.002*[#   8]+0.001*[#  14]
    |psi|^2 = 0.031

 k =   0.0000000000  0.3656551705  0.0000000000
==== e(   1) =   -18.18886 eV ==== 
     psi = 0.490*[#  13]+0.140*[#   5]+0.139*[#   7]+0.139*[#   8]+0.023*[#  15]
          +0.023*[#  16]+0.010*[#   1]+0.010*[#   9]+0.003*[#   3]+0.003*[#   4]
          +0.003*[#  11]+0.003*[#  12]
    |psi|^2 = 0.988
==== e(   2) =   -17.83931 eV ==== 
     psi = 0.300*[#   9]+0.300*[#   1]+0.088*[#   3]+0.088*[#   4]+0.088*[#  11]
          +0.088*[#  12]+0.019*[#  13]+0.005*[#   5]+0.004*[#   7]+0.004*[#   8]
          
    |psi|^2 = 0.985
==== e(   3) =    -9.99045 eV ==== 
     psi = 0.187*[#  11]+0.187*[#  12]+0.187*[#   3]+0.187*[#   4]+0.120*[#   9]
          +0.120*[#   1]
    |psi|^2 = 0.991
==== e(   4) =    -8.80074 eV ==== 
     psi = 0.334*[#  15]+0.334*[#  16]+0.141*[#   5]+0.066*[#  13]+0.057*[#   7]
          +0.057*[#   8]
    |psi|^2 = 0.993
==== e(   5) =    -6.48060 eV ==== 
     psi = 0.249*[#  11]+0.249*[#  12]+0.249*[#   3]+0.249*[#   4]
    |psi|^2 = 0.997
==== e(   6) =    -5.90670 eV ==== 
     psi = 0.370*[#   2]+0.369*[#  10]+0.152*[#  14]+0.098*[#   6]
    |psi|^2 = 0.992
==== e(   7) =    -5.74848 eV ==== 
     psi = 0.345*[#  15]+0.345*[#  16]+0.153*[#   7]+0.153*[#   8]
    |psi|^2 = 0.997
==== e(   8) =    -4.85961 eV ==== 
     psi = 0.507*[#  14]+0.238*[#   6]+0.126*[#  10]+0.124*[#   2]
    |psi|^2 = 0.995
==== e(   9) =     4.32456 eV ==== 
     psi = 0.443*[#  10]+0.435*[#   2]+0.028*[#   6]+0.012*[#  14]+0.002*[#  13]
          +0.002*[#   5]+0.001*[#   7]+0.001*[#   8]
    |psi|^2 = 0.925
==== e(  10) =     5.13795 eV ==== 
     psi = 0.479*[#   6]+0.219*[#  14]+0.029*[#   2]+0.024*[#  10]+0.009*[#  13]
          +0.009*[#   5]+0.006*[#   7]+0.006*[#   8]
    |psi|^2 = 0.785
==== e(  11) =     5.41222 eV ==== 
     psi = 0.049*[#   5]+0.048*[#  13]+0.027*[#   7]+0.027*[#   8]+0.026*[#   6]
          +0.018*[#  14]+0.006*[#   2]+0.002*[#  15]+0.002*[#  16]+0.001*[#   3]
          +0.001*[#   4]+0.002*[#  10]+0.001*[#   1]+0.001*[#   9]+0.001*[#  11]
          +0.001*[#  12]
    |psi|^2 = 0.214
[...]
    |psi|^2 = 0.991
==== e(   8) =    -1.61689 eV ==== 
     psi = 0.487*[#   2]+0.477*[#  10]+0.027*[#  14]+0.004*[#   6]
    |psi|^2 = 0.995
==== e(   9) =    -0.16576 eV ==== 
     psi = 0.505*[#  10]+0.474*[#   2]+0.010*[#   6]
    |psi|^2 = 0.990
==== e(  10) =     2.66983 eV ==== 
     psi = 0.950*[#   6]+0.021*[#  14]+0.018*[#   2]
    |psi|^2 = 0.991
==== e(  11) =     9.67293 eV ==== 
     psi = 0.003*[#   7]+0.003*[#   8]+0.003*[#   5]+0.002*[#  13]
    |psi|^2 = 0.014
==== e(  12) =    10.04477 eV ==== 
     psi = 0.026*[#   9]+0.006*[#   3]+0.006*[#   4]+0.001*[#   6]
    |psi|^2 = 0.041
==== e(  13) =    10.55332 eV ==== 
     psi = 0.218*[#   5]+0.038*[#  15]+0.038*[#  16]+0.028*[#   1]+0.008*[#   7]
          +0.008*[#   8]+0.008*[#  11]+0.008*[#  12]+0.008*[#  13]+0.003*[#   9]
          
    |psi|^2 = 0.367
==== e(  14) =    11.58485 eV ==== 
     psi = 0.095*[#   5]+0.080*[#   9]+0.051*[#   1]+0.026*[#   7]+0.026*[#   8]
          +0.025*[#  15]+0.025*[#  16]+0.024*[#   3]+0.024*[#   4]+0.017*[#  11]
          +0.017*[#  12]+0.002*[#  13]
    |psi|^2 = 0.412
==== e(  15) =    11.93469 eV ==== 
     psi = 0.054*[#   1]+0.046*[#   5]+0.025*[#   9]+0.016*[#  11]+0.016*[#  12]
          +0.009*[#   3]+0.009*[#   4]+0.009*[#  15]+0.009*[#  16]+0.004*[#   7]
          +0.004*[#   8]+0.002*[#  13]
    |psi|^2 = 0.202
==== e(  16) =    12.28154 eV ==== 
     psi = 0.078*[#   1]+0.063*[#   9]+0.038*[#  11]+0.038*[#  12]+0.032*[#   3]
          +0.032*[#   4]+0.005*[#   7]+0.005*[#   8]+0.003*[#   5]+0.002*[#  15]
          +0.002*[#  16]
    |psi|^2 = 0.297
==== e(  17) =    12.84146 eV ==== 
     psi = 0.095*[#   5]+0.079*[#   1]+0.045*[#   9]+0.030*[#  11]+0.030*[#  12]
          +0.022*[#  15]+0.022*[#  16]+0.015*[#   3]+0.015*[#   4]+0.007*[#   7]
          +0.007*[#   8]
    |psi|^2 = 0.369
==== e(  18) =    13.01011 eV ==== 
     psi = 0.022*[#   7]+0.022*[#   8]+0.017*[#   1]+0.010*[#   9]+0.007*[#  15]
          +0.007*[#  16]+0.006*[#   5]+0.006*[#  11]+0.006*[#  12]+0.004*[#   3]
          +0.004*[#   4]+0.004*[#  13]
    |psi|^2 = 0.116
==== e(  19) =    13.48449 eV ==== 
     psi = 0.032*[#   7]+0.032*[#   8]+0.022*[#   9]+0.012*[#  13]+0.011*[#  15]
          +0.011*[#  16]+0.010*[#   3]+0.010*[#   4]+0.009*[#   5]
    |psi|^2 = 0.151
==== e(  20) =    14.04083 eV ==== 
     psi = 0.034*[#   9]+0.015*[#   3]+0.015*[#   4]+0.010*[#   1]+0.007*[#   7]
          +0.007*[#   8]+0.005*[#  11]+0.005*[#  12]+0.003*[#  13]+0.002*[#  15]
          +0.002*[#  16]
    |psi|^2 = 0.104

 k =   0.3000000000  0.5581052602  0.0000000000
==== e(   1) =   -16.28493 eV ==== 
     psi = 0.599*[#  13]+0.196*[#   7]+0.196*[#   8]+0.003*[#   5]
    |psi|^2 = 0.994
==== e(   2) =   -13.81104 eV ==== 
     psi = 0.242*[#   9]+0.241*[#   1]+0.128*[#   3]+0.128*[#   4]+0.127*[#  11]
          +0.127*[#  12]
    |psi|^2 = 0.993
==== e(   3) =   -13.05551 eV ==== 
     psi = 0.212*[#   1]+0.211*[#   9]+0.143*[#  11]+0.143*[#  12]+0.142*[#   3]
          +0.142*[#   4]
    |psi|^2 = 0.993
==== e(   4) =   -11.05799 eV ==== 
     psi = 0.240*[#  11]+0.240*[#  12]+0.240*[#   3]+0.240*[#   4]+0.011*[#   1]
          +0.010*[#   9]
    |psi|^2 = 0.983
==== e(   5) =   -10.30150 eV ==== 
     psi = 0.303*[#  15]+0.303*[#  16]+0.171*[#   7]+0.171*[#   8]+0.035*[#   5]
          +0.002*[#  13]
    |psi|^2 = 0.986
==== e(   6) =    -9.27475 eV ==== 
     psi = 0.344*[#  15]+0.344*[#  16]+0.255*[#   5]+0.026*[#   7]+0.026*[#   8]
          
    |psi|^2 = 0.995
==== e(   7) =    -2.32064 eV ==== 
     psi = 0.971*[#  14]+0.013*[#   6]+0.004*[#   2]+0.002*[#  10]
    |psi|^2 = 0.991
==== e(   8) =    -1.41798 eV ==== 
     psi = 0.500*[#   2]+0.480*[#  10]+0.007*[#   6]+0.007*[#  14]
    |psi|^2 = 0.995
==== e(   9) =    -0.37710 eV ==== 
     psi = 0.510*[#  10]+0.469*[#   2]+0.010*[#   6]+0.002*[#  14]
    |psi|^2 = 0.991
==== e(  10) =     2.62810 eV ==== 
     psi = 0.961*[#   6]+0.019*[#   2]+0.011*[#  14]
    |psi|^2 = 0.991
==== e(  11) =     9.65346 eV ==== 
     psi = 0.003*[#   7]+0.003*[#   8]+0.002*[#  13]+0.001*[#   5]
    |psi|^2 = 0.011
==== e(  12) =    10.02507 eV ==== 
     psi = 0.025*[#   9]+0.006*[#   3]+0.006*[#   4]
    |psi|^2 = 0.040
==== e(  13) =    10.77299 eV ==== 
     psi = 0.280*[#   5]+0.049*[#  15]+0.049*[#  16]+0.044*[#   1]+0.013*[#  11]
          +0.013*[#  12]+0.004*[#  13]+0.004*[#   7]+0.004*[#   8]+0.001*[#   9]
          
    |psi|^2 = 0.462
==== e(  14) =    11.60649 eV ==== 
     psi = 0.098*[#   9]+0.034*[#   5]+0.033*[#   7]+0.033*[#   8]+0.031*[#   3]
          +0.031*[#   4]+0.023*[#   1]+0.015*[#  15]+0.015*[#  16]+0.007*[#  11]
          +0.007*[#  12]+0.003*[#  13]
    |psi|^2 = 0.330
==== e(  15) =    12.13679 eV ==== 
     psi = 0.096*[#   1]+0.055*[#   5]+0.037*[#   9]+0.034*[#  11]+0.034*[#  12]
          +0.015*[#   3]+0.015*[#   4]+0.010*[#  15]+0.010*[#  16]+0.002*[#   7]
          +0.002*[#   8]
    |psi|^2 = 0.310
==== e(  16) =    12.28246 eV ==== 
     psi = 0.058*[#   1]+0.025*[#  11]+0.025*[#  12]+0.025*[#   9]+0.023*[#   5]
          +0.013*[#   3]+0.013*[#   4]+0.005*[#  15]+0.005*[#  16]+0.004*[#   7]
          +0.004*[#   8]+0.001*[#  13]
    |psi|^2 = 0.201
==== e(  17) =    12.95845 eV ==== 
     psi = 0.051*[#   5]+0.046*[#   1]+0.032*[#   9]+0.019*[#   7]+0.019*[#   8]
          +0.017*[#  11]+0.017*[#  12]+0.016*[#  15]+0.016*[#  16]+0.011*[#   3]
          +0.011*[#   4]+0.002*[#  13]
    |psi|^2 = 0.258
==== e(  18) =    13.25528 eV ==== 
     psi = 0.027*[#   7]+0.027*[#   8]+0.013*[#   5]+0.011*[#   9]+0.011*[#  15]
          +0.011*[#  16]+0.006*[#   1]+0.006*[#  13]+0.005*[#   3]+0.005*[#   4]
          +0.003*[#  11]+0.003*[#  12]
    |psi|^2 = 0.126
==== e(  19) =    13.63129 eV ==== 
     psi = 0.023*[#   9]+0.010*[#   3]+0.010*[#   4]+0.009*[#   1]+0.005*[#   7]
          +0.005*[#   8]+0.004*[#  11]+0.004*[#  12]+0.004*[#   5]+0.003*[#  15]
          +0.003*[#  16]+0.001*[#  13]
    |psi|^2 = 0.084
==== e(  20) =    14.18958 eV ==== 
     psi = 0.075*[#   1]+0.071*[#   9]+0.036*[#  11]+0.036*[#  12]+0.035*[#   3]
          +0.035*[#   4]+0.002*[#   7]+0.002*[#   8]
    |psi|^2 = 0.294

 k =   0.3000000000  0.5773502692  0.0000000000
==== e(   1) =   -16.27459 eV ==== 
     psi = 0.600*[#  13]+0.196*[#   7]+0.196*[#   8]+0.002*[#   5]
    |psi|^2 = 0.994
==== e(   2) =   -13.69441 eV ==== 
     psi = 0.246*[#   9]+0.244*[#   1]+0.126*[#   3]+0.126*[#   4]+0.126*[#  11]
          +0.126*[#  12]
    |psi|^2 = 0.994
==== e(   3) =   -13.16029 eV ==== 
     psi = 0.210*[#   1]+0.209*[#   9]+0.144*[#  11]+0.144*[#  12]+0.143*[#   3]
          +0.143*[#   4]
    |psi|^2 = 0.993
==== e(   4) =   -11.08338 eV ==== 
     psi = 0.241*[#  11]+0.241*[#  12]+0.241*[#   3]+0.241*[#   4]+0.010*[#   1]
          +0.010*[#   9]
    |psi|^2 = 0.983
==== e(   5) =   -10.29981 eV ==== 
     psi = 0.303*[#  15]+0.303*[#  16]+0.174*[#   7]+0.174*[#   8]+0.031*[#   5]
          
    |psi|^2 = 0.986
==== e(   6) =    -9.29873 eV ==== 
     psi = 0.345*[#  15]+0.345*[#  16]+0.259*[#   5]+0.022*[#   7]+0.022*[#   8]
          
    |psi|^2 = 0.996
==== e(   7) =    -2.29966 eV ==== 
     psi = 0.980*[#  14]+0.009*[#   6]+0.002*[#   2]
    |psi|^2 = 0.991
==== e(   8) =    -1.32899 eV ==== 
     psi = 0.506*[#   2]+0.478*[#  10]+0.009*[#   6]
    |psi|^2 = 0.995
==== e(   9) =    -0.46986 eV ==== 
     psi = 0.514*[#  10]+0.465*[#   2]+0.009*[#   6]+0.002*[#  14]
    |psi|^2 = 0.991
==== e(  10) =     2.61399 eV ==== 
     psi = 0.965*[#   6]+0.019*[#   2]+0.007*[#  14]
    |psi|^2 = 0.992
==== e(  11) =     9.64579 eV ==== 
     psi = 0.003*[#   7]+0.003*[#   8]+0.001*[#  13]
    |psi|^2 = 0.010
==== e(  12) =    10.01774 eV ==== 
     psi = 0.025*[#   9]+0.006*[#   3]+0.006*[#   4]
    |psi|^2 = 0.040
==== e(  13) =    10.85595 eV ==== 
     psi = 0.314*[#   5]+0.055*[#  15]+0.055*[#  16]+0.053*[#   1]+0.016*[#  11]
          +0.016*[#  12]+0.002*[#  13]+0.001*[#   7]+0.001*[#   8]
    |psi|^2 = 0.514
==== e(  14) =    11.61674 eV ==== 
     psi = 0.107*[#   9]+0.037*[#   7]+0.037*[#   8]+0.034*[#   3]+0.034*[#   4]
          +0.009*[#  15]+0.009*[#  16]+0.006*[#   1]+0.004*[#  13]+0.002*[#   5]
          +0.002*[#  11]+0.002*[#  12]
    |psi|^2 = 0.282
==== e(  15) =    12.17427 eV ==== 
     psi = 0.122*[#   1]+0.047*[#  11]+0.047*[#  12]+0.046*[#   9]+0.020*[#   3]
          +0.020*[#   4]+0.014*[#   5]+0.003*[#   7]+0.003*[#   8]+0.002*[#  15]
          +0.002*[#  16]+0.001*[#  13]
    |psi|^2 = 0.328
==== e(  16) =    12.32290 eV ==== 
     psi = 0.085*[#   5]+0.052*[#   1]+0.018*[#  11]+0.018*[#  12]+0.016*[#  15]
          +0.016*[#  16]+0.003*[#   9]+0.003*[#   3]+0.003*[#   4]
    |psi|^2 = 0.214
==== e(  17) =    13.00603 eV ==== 
     psi = 0.025*[#   7]+0.025*[#   8]+0.021*[#   9]+0.007*[#   3]+0.007*[#   4]
          +0.007*[#  15]+0.007*[#  16]+0.006*[#   1]+0.003*[#  13]+0.002*[#  11]
          +0.002*[#  12]
    |psi|^2 = 0.115
==== e(  18) =    13.26153 eV ==== 
     psi = 0.041*[#   5]+0.023*[#   7]+0.023*[#   8]+0.020*[#   1]+0.017*[#   9]
          +0.016*[#  15]+0.016*[#  16]+0.008*[#  11]+0.008*[#  12]+0.007*[#   3]
          +0.007*[#   4]+0.005*[#  13]
    |psi|^2 = 0.193
==== e(  19) =    13.85797 eV ==== 
     psi = 0.044*[#   9]+0.041*[#   1]+0.021*[#   3]+0.021*[#   4]+0.019*[#  11]
          +0.019*[#  12]+0.001*[#   5]
    |psi|^2 = 0.166
==== e(  20) =    14.07138 eV ==== 
     psi = 0.018*[#   9]+0.009*[#   1]+0.007*[#   3]+0.007*[#   4]+0.004*[#  11]
          +0.004*[#  12]+0.001*[#   5]
    |psi|^2 = 0.052

 k =   0.3166666667  0.5484827557  0.0000000000
==== e(   1) =   -16.27873 eV ==== 
     psi = 0.599*[#  13]+0.196*[#   7]+0.196*[#   8]+0.002*[#   5]
    |psi|^2 = 0.994
==== e(   2) =   -13.79331 eV ==== 
     psi = 0.239*[#   9]+0.238*[#   1]+0.129*[#   3]+0.129*[#   4]+0.129*[#  11]
          +0.129*[#  12]
    |psi|^2 = 0.993
==== e(   3) =   -13.03387 eV ==== 
     psi = 0.220*[#   1]+0.219*[#   9]+0.139*[#  11]+0.139*[#  12]+0.138*[#   3]
          +0.138*[#   4]
    |psi|^2 = 0.994
==== e(   4) =   -11.10945 eV ==== 
     psi = 0.242*[#  11]+0.242*[#  12]+0.242*[#   3]+0.242*[#   4]+0.006*[#   1]
          +0.006*[#   9]
    |psi|^2 = 0.982
==== e(   5) =   -10.27876 eV ==== 
     psi = 0.301*[#  15]+0.301*[#  16]+0.178*[#   7]+0.178*[#   8]+0.025*[#   5]
          +0.002*[#  13]
    |psi|^2 = 0.986
==== e(   6) =    -9.31402 eV ==== 
     psi = 0.346*[#  15]+0.346*[#  16]+0.265*[#   5]+0.018*[#   7]+0.018*[#   8]
          
    |psi|^2 = 0.996
==== e(   7) =    -2.31046 eV ==== 
     psi = 0.973*[#  14]+0.011*[#   6]+0.004*[#   2]+0.003*[#  10]
    |psi|^2 = 0.991
==== e(   8) =    -1.36782 eV ==== 
     psi = 0.501*[#   2]+0.477*[#  10]+0.009*[#  14]+0.007*[#   6]
    |psi|^2 = 0.995
==== e(   9) =    -0.42354 eV ==== 
     psi = 0.513*[#  10]+0.468*[#   2]+0.010*[#   6]
    |psi|^2 = 0.992
==== e(  10) =     2.62498 eV ==== 
     psi = 0.963*[#   6]+0.019*[#   2]+0.009*[#  14]
    |psi|^2 = 0.992
==== e(  11) =     9.63649 eV ==== 
     psi = 0.003*[#   7]+0.003*[#   8]+0.001*[#  13]
    |psi|^2 = 0.010
==== e(  12) =    10.01064 eV ==== 
     psi = 0.024*[#   9]+0.006*[#   3]+0.006*[#   4]
    |psi|^2 = 0.038
==== e(  13) =    10.78421 eV ==== 
     psi = 0.275*[#   5]+0.048*[#  15]+0.048*[#  16]+0.043*[#   1]+0.013*[#  11]
          +0.013*[#  12]+0.004*[#   7]+0.004*[#   8]+0.004*[#  13]+0.002*[#   9]
          
    |psi|^2 = 0.455
==== e(  14) =    11.65326 eV ==== 
     psi = 0.097*[#   9]+0.044*[#   5]+0.031*[#   7]+0.031*[#   8]+0.031*[#   3]
          +0.031*[#   4]+0.025*[#   1]+0.017*[#  15]+0.017*[#  16]+0.008*[#  11]
          +0.008*[#  12]+0.002*[#  13]
    |psi|^2 = 0.343
==== e(  15) =    12.18614 eV ==== 
     psi = 0.068*[#   5]+0.064*[#   1]+0.021*[#  11]+0.021*[#  12]+0.018*[#   9]
          +0.013*[#  15]+0.013*[#  16]+0.007*[#   3]+0.007*[#   4]+0.002*[#   7]
          +0.002*[#   8]
    |psi|^2 = 0.237
==== e(  16) =    12.34191 eV ==== 
     psi = 0.077*[#   1]+0.034*[#  11]+0.034*[#  12]+0.033*[#   9]+0.018*[#   3]
          +0.018*[#   4]+0.006*[#   5]+0.004*[#   7]+0.004*[#   8]+0.002*[#  15]
          +0.002*[#  16]
    |psi|^2 = 0.231
==== e(  17) =    12.98453 eV ==== 
     psi = 0.066*[#   1]+0.060*[#   5]+0.041*[#   9]+0.025*[#  11]+0.025*[#  12]
          +0.018*[#  15]+0.018*[#  16]+0.018*[#   7]+0.018*[#   8]+0.014*[#   3]
          +0.014*[#   4]
    |psi|^2 = 0.319
==== e(  18) =    13.30908 eV ==== 
     psi = 0.026*[#   7]+0.026*[#   8]+0.008*[#  15]+0.008*[#  16]+0.008*[#   9]
          +0.004*[#   3]+0.004*[#   4]+0.003*[#  13]+0.003*[#   1]+0.003*[#   5]
          +0.001*[#  11]+0.001*[#  12]
    |psi|^2 = 0.097
==== e(  19) =    13.65411 eV ==== 
     psi = 0.033*[#   9]+0.014*[#   3]+0.014*[#   4]+0.009*[#   7]+0.009*[#   8]
          +0.006*[#   1]+0.003*[#  15]+0.003*[#  16]+0.003*[#  11]+0.003*[#  12]
          +0.001*[#  13]+0.001*[#   5]
    |psi|^2 = 0.102
==== e(  20) =    14.25502 eV ==== 
     psi = 0.070*[#   1]+0.057*[#   9]+0.033*[#  11]+0.033*[#  12]+0.027*[#   3]
          +0.027*[#   4]+0.006*[#   7]+0.006*[#   8]+0.002*[#  15]+0.002*[#  16]
          +0.002*[#  13]+0.001*[#   5]
    |psi|^2 = 0.267

 k =   0.3166666667  0.5677277647  0.0000000000
==== e(   1) =   -16.26002 eV ==== 
     psi = 0.601*[#  13]+0.196*[#   7]+0.196*[#   8]
    |psi|^2 = 0.994
==== e(   2) =   -13.58425 eV ==== 
     psi = 0.239*[#   9]+0.237*[#   1]+0.130*[#   3]+0.130*[#   4]+0.129*[#  11]
          +0.129*[#  12]
    |psi|^2 = 0.994
==== e(   3) =   -13.20383 eV ==== 
     psi = 0.224*[#   1]+0.222*[#   9]+0.137*[#  11]+0.137*[#  12]+0.136*[#   3]
          +0.136*[#   4]
    |psi|^2 = 0.994
==== e(   4) =   -11.17499 eV ==== 
     psi = 0.244*[#  11]+0.244*[#  12]+0.244*[#   3]+0.244*[#   4]+0.003*[#   1]
          +0.003*[#   9]
    |psi|^2 = 0.982
==== e(   5) =   -10.26160 eV ==== 
     psi = 0.298*[#  15]+0.298*[#  16]+0.188*[#   7]+0.188*[#   8]+0.011*[#   5]
          
    |psi|^2 = 0.985
==== e(   6) =    -9.37307 eV ==== 
     psi = 0.349*[#  15]+0.349*[#  16]+0.281*[#   5]+0.008*[#   7]+0.008*[#   8]
          
    |psi|^2 = 0.996
==== e(   7) =    -2.27399 eV ==== 
     psi = 0.986*[#  14]+0.003*[#   6]
    |psi|^2 = 0.991
==== e(   8) =    -1.15909 eV ==== 
     psi = 0.520*[#   2]+0.463*[#  10]+0.009*[#   6]+0.001*[#  14]
    |psi|^2 = 0.994
==== e(   9) =    -0.63585 eV ==== 
     psi = 0.529*[#  10]+0.453*[#   2]+0.009*[#   6]
    |psi|^2 = 0.992
==== e(  10) =     2.60215 eV ==== 
     psi = 0.970*[#   6]+0.019*[#   2]+0.003*[#  14]
    |psi|^2 = 0.993
==== e(  11) =     9.61538 eV ==== 
     psi = 0.003*[#   7]+0.003*[#   8]+0.001*[#  13]
    |psi|^2 = 0.008
==== e(  12) =     9.99132 eV ==== 
     psi = 0.024*[#   9]+0.006*[#   3]+0.006*[#   4]
    |psi|^2 = 0.036
==== e(  13) =    10.90905 eV ==== 
     psi = 0.317*[#   5]+0.057*[#  15]+0.057*[#  16]+0.055*[#   1]+0.017*[#  11]
          +0.017*[#  12]
    |psi|^2 = 0.522
==== e(  14) =    11.70682 eV ==== 
     psi = 0.115*[#   9]+0.038*[#   3]+0.038*[#   4]+0.035*[#   7]+0.035*[#   8]
          +0.011*[#  15]+0.011*[#  16]+0.007*[#   5]+0.005*[#   1]+0.002*[#  11]
          +0.002*[#  12]+0.001*[#  13]
    |psi|^2 = 0.300
==== e(  15) =    12.31303 eV ==== 
     psi = 0.035*[#   1]+0.021*[#   9]+0.015*[#  11]+0.015*[#  12]+0.015*[#   5]
          +0.011*[#   3]+0.011*[#   4]+0.004*[#   7]+0.004*[#   8]+0.003*[#  15]
          +0.003*[#  16]
    |psi|^2 = 0.137
==== e(  16) =    12.37486 eV ==== 
     psi = 0.129*[#   1]+0.084*[#   5]+0.046*[#  11]+0.046*[#  12]+0.016*[#  15]
          +0.016*[#  16]
    |psi|^2 = 0.341
==== e(  17) =    13.11508 eV ==== 
     psi = 0.030*[#   9]+0.025*[#   7]+0.025*[#   8]+0.017*[#   1]+0.012*[#   5]
          +0.011*[#   3]+0.011*[#   4]+0.010*[#  15]+0.010*[#  16]+0.007*[#  11]
          +0.007*[#  12]+0.001*[#  13]
    |psi|^2 = 0.167
==== e(  18) =    13.34652 eV ==== 
     psi = 0.022*[#   7]+0.022*[#   8]+0.017*[#   9]+0.009*[#  15]+0.009*[#  16]
          +0.009*[#   5]+0.007*[#   3]+0.007*[#   4]+0.006*[#   1]+0.003*[#  11]
          +0.003*[#  12]
    |psi|^2 = 0.116
==== e(  19) =    13.91355 eV ==== 
     psi = 0.044*[#   9]+0.042*[#   1]+0.020*[#   3]+0.020*[#   4]+0.019*[#  11]
          +0.019*[#  12]+0.001*[#   5]
    |psi|^2 = 0.169
==== e(  20) =    14.20583 eV ==== 
     psi = 0.073*[#   9]+0.059*[#   1]+0.033*[#   3]+0.033*[#   4]+0.027*[#  11]
          +0.027*[#  12]
    |psi|^2 = 0.254

 k =   0.3333333333  0.5773502692  0.0000000000
==== e(   1) =   -16.25163 eV ==== 
     psi = 0.602*[#  13]+0.196*[#   7]+0.196*[#   8]
    |psi|^2 = 0.994
==== e(   2) =   -13.38108 eV ==== 
     psi = 0.465*[#   9]+0.264*[#   3]+0.264*[#   4]
    |psi|^2 = 0.994
==== e(   3) =   -13.37933 eV ==== 
     psi = 0.464*[#   1]+0.265*[#  11]+0.265*[#  12]
    |psi|^2 = 0.994
==== e(   4) =   -11.21554 eV ==== 
     psi = 0.245*[#  11]+0.245*[#  12]+0.245*[#   3]+0.245*[#   4]
    |psi|^2 = 0.981
==== e(   5) =   -10.24556 eV ==== 
     psi = 0.296*[#  15]+0.296*[#  16]+0.196*[#   7]+0.196*[#   8]
    |psi|^2 = 0.985
==== e(   6) =    -9.40869 eV ==== 
     psi = 0.352*[#  15]+0.352*[#  16]+0.293*[#   5]
    |psi|^2 = 0.997
==== e(   7) =    -2.25842 eV ==== 
     psi = 0.991*[#  14]
    |psi|^2 = 0.991
==== e(   8) =    -0.91531 eV ==== 
     psi = 0.973*[#   2]+0.020*[#   6]
    |psi|^2 = 0.994
==== e(   9) =    -0.87926 eV ==== 
     psi = 0.993*[#  10]
    |psi|^2 = 0.993
==== e(  10) =     2.59347 eV ==== 
     psi = 0.973*[#   6]+0.020*[#   2]
    |psi|^2 = 0.993
==== e(  11) =     9.60198 eV ==== 
     psi = 0.003*[#   7]+0.003*[#   8]+0.001*[#  13]
    |psi|^2 = 0.008
==== e(  12) =     9.97934 eV ==== 
     psi = 0.023*[#   9]+0.006*[#   3]+0.006*[#   4]
    |psi|^2 = 0.035
==== e(  13) =    10.95255 eV ==== 
     psi = 0.328*[#   5]+0.059*[#   1]+0.059*[#  15]+0.059*[#  16]+0.018*[#  11]
          +0.018*[#  12]
    |psi|^2 = 0.542
==== e(  14) =    11.75284 eV ==== 
     psi = 0.126*[#   9]+0.042*[#   3]+0.042*[#   4]+0.036*[#   7]+0.036*[#   8]
          +0.010*[#  15]+0.010*[#  16]
    |psi|^2 = 0.303
==== e(  15) =    12.34546 eV ==== 
     psi = 0.005*[#   7]+0.005*[#   8]+0.003*[#   3]+0.003*[#   4]+0.003*[#  11]
          +0.003*[#  12]+0.001*[#  13]
    |psi|^2 = 0.021
==== e(  16) =    12.42830 eV ==== 
     psi = 0.170*[#   1]+0.105*[#   5]+0.060*[#  11]+0.060*[#  12]+0.020*[#  15]
          +0.020*[#  16]
    |psi|^2 = 0.437
==== e(  17) =    13.24264 eV ==== 
     psi = 0.047*[#   9]+0.044*[#   7]+0.044*[#   8]+0.018*[#   3]+0.018*[#   4]
          +0.014*[#  15]+0.014*[#  16]
    |psi|^2 = 0.202
==== e(  18) =    13.30730 eV ==== 
     psi = 0.001*[#   7]+0.001*[#   8]+0.001*[#  14]
    |psi|^2 = 0.005
==== e(  19) =    14.03999 eV ==== 
     psi = 0.127*[#   1]+0.058*[#  11]+0.058*[#  12]
    |psi|^2 = 0.244
==== e(  20) =    14.16617 eV ==== 
     psi = 0.206*[#   9]+0.094*[#   3]+0.094*[#   4]+0.003*[#   7]+0.003*[#   8]
          +0.001*[#  15]+0.001*[#  16]
    |psi|^2 = 0.403

Lowdin Charges: 

     Atom #   1: total charge =   3.9594, s =  0.8968, 
     Atom #   1: total charge =   3.9594, p =  3.0626, pz=  0.9888, px=  1.0369, py=  1.0369, 
     Atom #   2: total charge =   2.5446, s =  0.6104, 
     Atom #   2: total charge =   2.5446, p =  1.9342, pz=  0.5296, px=  0.7023, py=  0.7023, 
     Atom #   3: total charge =   3.9618, s =  0.8974, 
     Atom #   3: total charge =   3.9618, p =  3.0644, pz=  0.9891, px=  1.0377, py=  1.0377, 
     Atom #   4: total charge =   5.3985, s =  1.1649, 
     Atom #   4: total charge =   5.3985, p =  4.2336, pz=  1.4555, px=  1.3890, py=  1.3890, 
     Spilling Parameter:   0.0085

     PROJWFC      :     11.62s CPU     12.74s WALL


   This run was terminated on:  15:51:55  18Apr2024            

=------------------------------------------------------------------------------=
   JOB DONE.
=------------------------------------------------------------------------------=
