
     Program PWSCF v.7.2 starts on 17Apr2024 at 20:57:33 

     This program is part of the open-source Quantum ESPRESSO suite
     for quantum simulation of materials; please cite
         "P. Giannozzi et al., J. Phys.:Condens. Matter 21 395502 (2009);
         "P. Giannozzi et al., J. Phys.:Condens. Matter 29 465901 (2017);
         "P. Giannozzi et al., J. Chem. Phys. 152 154105 (2020);
          URL http://www.quantum-espresso.org", 
     in publications or presentations arising from this work. More details at
     http://www.quantum-espresso.org/quote

     Parallel version (MPI & OpenMP), running on       8 processor cores
     Number of MPI processes:                 8
     Threads/MPI process:                     1

     MPI processes distributed on     1 nodes
     0 MiB available memory on the printing compute node when the environment starts

     Waiting for input...
     Reading input from standard input

     Current dimensions of program PWSCF are:
     Max number of different atomic species (ntypx) = 10
     Max number of k-points (npk) =  40000
     Max angular momentum in pseudopotentials (lmaxx) =  4

     IMPORTANT: XC functional enforced from input :
     Exchange-correlation= VDW-DF2-B86R
                           (   1   4  26   0   2   0   0)
     Any further DFT definition will be discarded
     Please, verify this is what you really want


     R & G space division:  proc/nbgrp/npool/nimage =       8
     Subspace diagonalization in iterative solution of the eigenvalue problem:
     a serial algorithm will be used


     Parallelization info
     --------------------
     sticks:   dense  smooth     PW     G-vecs:    dense   smooth      PW
     Min         160     160     45                18182    18182    2721
     Max         161     161     46                18197    18197    2736
     Sum        1285    1285    361               145525   145525   21823

     Using Slab Decomposition



     bravais-lattice index     =            4
     lattice parameter (alat)  =       5.9926  a.u.
     unit-cell volume          =     726.4071 (a.u.)^3
     number of atoms/cell      =            6
     number of atomic types    =            2
     number of electrons       =        52.00
     number of Kohn-Sham states=           26
     kinetic-energy cutoff     =     130.0000  Ry
     charge density cutoff     =     520.0000  Ry
     scf convergence threshold =      1.0E-07
     mixing beta               =       0.7000
     number of iterations used =            8  plain     mixing
     energy convergence thresh.=      1.0E-05
     force convergence thresh. =      1.0E-04
     press convergence thresh. =      5.0E-01
     Exchange-correlation= VDW-DF2-B86R
                           (   1   4  26   0   2   0   0)
     nstep                     =           50


     celldm(1)=   5.992589  celldm(2)=   0.000000  celldm(3)=   3.897678
     celldm(4)=   0.000000  celldm(5)=   0.000000  celldm(6)=   0.000000

     crystal axes: (cart. coord. in units of alat)
               a(1) = (   1.000000   0.000000   0.000000 )  
               a(2) = (  -0.500000   0.866025   0.000000 )  
               a(3) = (   0.000000   0.000000   3.897678 )  

     reciprocal axes: (cart. coord. in units 2 pi/alat)
               b(1) = (  1.000000  0.577350 -0.000000 )  
               b(2) = (  0.000000  1.154701  0.000000 )  
               b(3) = (  0.000000 -0.000000  0.256563 )  


     PseudoPot. # 1 for S  read from file:
     ../../../Pseudo/PBE/S.upf
     MD5 check sum: b72b6a9ca752e39de1a6cc592280dae2
     Pseudo is Norm-conserving + core correction, Zval =  6.0
     Generated using ONCVPSP code by D. R. Hamann
     Using radial grid of 1148 points,  6 beta functions with: 
                l(1) =   0
                l(2) =   0
                l(3) =   1
                l(4) =   1
                l(5) =   2
                l(6) =   2

     PseudoPot. # 2 for Mo read from file:
     ../../../Pseudo/PBE/Mo.upf
     MD5 check sum: 7ca7a9feba7bf08d88d14bc7fbf60c1e
     Pseudo is Norm-conserving + core correction, Zval = 14.0
     Generated using ONCVPSP code by D. R. Hamann
     Using radial grid of 1640 points,  6 beta functions with: 
                l(1) =   0
                l(2) =   0
                l(3) =   1
                l(4) =   1
                l(5) =   2
                l(6) =   2

     atomic species   valence    mass     pseudopotential
        S              6.00    32.06500     S ( 1.00)
        Mo            14.00   183.84000     Mo( 1.00)

     12 Sym. Ops., with inversion, found


                                    s                        frac. trans.

      isym =  1     identity                                     

 cryst.   s( 1) = (     1          0          0      )
                  (     0          1          0      )
                  (     0          0          1      )

 cart.    s( 1) = (  1.0000000  0.0000000  0.0000000 )
                  (  0.0000000  1.0000000  0.0000000 )
                  (  0.0000000  0.0000000  1.0000000 )


      isym =  2     180 deg rotation - cart. axis [1,0,0]        

 cryst.   s( 2) = (     1          0          0      )
                  (    -1         -1          0      )
                  (     0          0         -1      )

 cart.    s( 2) = (  1.0000000  0.0000000  0.0000000 )
                  (  0.0000000 -1.0000000  0.0000000 )
                  (  0.0000000  0.0000000 -1.0000000 )


      isym =  3     120 deg rotation - cryst. axis [0,0,1]       

 cryst.   s( 3) = (     0          1          0      )
                  (    -1         -1          0      )
                  (     0          0          1      )

 cart.    s( 3) = ( -0.5000000 -0.8660254  0.0000000 )
                  (  0.8660254 -0.5000000  0.0000000 )
                  (  0.0000000  0.0000000  1.0000000 )


      isym =  4     120 deg rotation - cryst. axis [0,0,-1]      

 cryst.   s( 4) = (    -1         -1          0      )
                  (     1          0          0      )
                  (     0          0          1      )

 cart.    s( 4) = ( -0.5000000  0.8660254  0.0000000 )
                  ( -0.8660254 -0.5000000  0.0000000 )
                  (  0.0000000  0.0000000  1.0000000 )


      isym =  5     180 deg rotation - cryst. axis [0,1,0]       

 cryst.   s( 5) = (    -1         -1          0      )
                  (     0          1          0      )
                  (     0          0         -1      )

 cart.    s( 5) = ( -0.5000000 -0.8660254  0.0000000 )
                  ( -0.8660254  0.5000000  0.0000000 )
                  (  0.0000000  0.0000000 -1.0000000 )


      isym =  6     180 deg rotation - cryst. axis [1,1,0]       

 cryst.   s( 6) = (     0          1          0      )
                  (     1          0          0      )
                  (     0          0         -1      )

 cart.    s( 6) = ( -0.5000000  0.8660254  0.0000000 )
                  (  0.8660254  0.5000000  0.0000000 )
                  (  0.0000000  0.0000000 -1.0000000 )


      isym =  7     inversion                                    

 cryst.   s( 7) = (    -1          0          0      )
                  (     0         -1          0      )
                  (     0          0         -1      )

 cart.    s( 7) = ( -1.0000000  0.0000000  0.0000000 )
                  (  0.0000000 -1.0000000  0.0000000 )
                  (  0.0000000  0.0000000 -1.0000000 )


      isym =  8     inv. 180 deg rotation - cart. axis [1,0,0]   

 cryst.   s( 8) = (    -1          0          0      )
                  (     1          1          0      )
                  (     0          0          1      )

 cart.    s( 8) = ( -1.0000000  0.0000000  0.0000000 )
                  (  0.0000000  1.0000000  0.0000000 )
                  (  0.0000000  0.0000000  1.0000000 )


      isym =  9     inv. 120 deg rotation - cryst. axis [0,0,1]  

 cryst.   s( 9) = (     0         -1          0      )
                  (     1          1          0      )
                  (     0          0         -1      )

 cart.    s( 9) = (  0.5000000  0.8660254  0.0000000 )
                  ( -0.8660254  0.5000000  0.0000000 )
                  (  0.0000000  0.0000000 -1.0000000 )


      isym = 10     inv. 120 deg rotation - cryst. axis [0,0,-1] 

 cryst.   s(10) = (     1          1          0      )
                  (    -1          0          0      )
                  (     0          0         -1      )

 cart.    s(10) = (  0.5000000 -0.8660254  0.0000000 )
                  (  0.8660254  0.5000000  0.0000000 )
                  (  0.0000000  0.0000000 -1.0000000 )


      isym = 11     inv. 180 deg rotation - cryst. axis [0,1,0]  

 cryst.   s(11) = (     1          1          0      )
                  (     0         -1          0      )
                  (     0          0          1      )

 cart.    s(11) = (  0.5000000  0.8660254  0.0000000 )
                  (  0.8660254 -0.5000000  0.0000000 )
                  (  0.0000000  0.0000000  1.0000000 )


      isym = 12     inv. 180 deg rotation - cryst. axis [1,1,0]  

 cryst.   s(12) = (     0         -1          0      )
                  (    -1          0          0      )
                  (     0          0          1      )

 cart.    s(12) = (  0.5000000 -0.8660254  0.0000000 )
                  ( -0.8660254 -0.5000000  0.0000000 )
                  (  0.0000000  0.0000000  1.0000000 )


     point group D_3d (-3m) 
     there are  6 classes
     the character table:

       E     2C3   3C2'  i     2S6   3s_d 
A_1g   1.00  1.00  1.00  1.00  1.00  1.00
A_2g   1.00  1.00 -1.00  1.00  1.00 -1.00
E_g    2.00 -1.00  0.00  2.00 -1.00  0.00
A_1u   1.00  1.00  1.00 -1.00 -1.00 -1.00
A_2u   1.00  1.00 -1.00 -1.00 -1.00  1.00
E_u    2.00 -1.00  0.00 -2.00  1.00  0.00

     the symmetry operations in each class and the name of the first element:

     E        1
          identity                                               
     2C3      3    4
          120 deg rotation - cryst. axis [0,0,1]                 
     3C2'     2    5    6
          180 deg rotation - cart. axis [1,0,0]                  
     i        7
          inversion                                              
     2S6      9   10
          inv. 120 deg rotation - cryst. axis [0,0,1]            
     3s_d     8   11   12
          inv. 180 deg rotation - cart. axis [1,0,0]             

   Cartesian axes

     site n.     atom                  positions (alat units)
         1           Mo  tau(   1) = (  -0.0000003   0.5773503  -0.9751726  )
         2           Mo  tau(   2) = (   0.5000002   0.2886748   0.9751726  )
         3           S   tau(   3) = (   0.5000002   0.2886748  -0.4800038  )
         4           S   tau(   4) = (  -0.0000003   0.5773503   0.4800038  )
         5           S   tau(   5) = (  -0.0000003   0.5773503   1.4703207  )
         6           S   tau(   6) = (   0.5000002   0.2886748  -1.4703207  )

   Crystallographic axes

     site n.     atom                  positions (cryst. coord.)
         1           Mo  tau(   1) = (  0.3333330  0.6666667 -0.2501932  )
         2           Mo  tau(   2) = (  0.6666667  0.3333330  0.2501932  )
         3           S   tau(   3) = (  0.6666667  0.3333330 -0.1231512  )
         4           S   tau(   4) = (  0.3333330  0.6666667  0.1231512  )
         5           S   tau(   5) = (  0.3333330  0.6666667  0.3772299  )
         6           S   tau(   6) = (  0.6666667  0.3333330 -0.3772299  )

     number of k points=    50
                       cart. coord. in units 2pi/alat
        k(    1) = (   0.0000000   0.0000000   0.0000000), wk =   0.0046296
        k(    2) = (   0.0000000   0.0000000   0.0855210), wk =   0.0092593
        k(    3) = (   0.0000000   0.0962250   0.0000000), wk =   0.0277778
        k(    4) = (   0.0000000   0.0962250   0.0855210), wk =   0.0277778
        k(    5) = (   0.0000000   0.1924501   0.0000000), wk =   0.0277778
        k(    6) = (   0.0000000   0.1924501   0.0855210), wk =   0.0277778
        k(    7) = (   0.0000000   0.2886751   0.0000000), wk =   0.0277778
        k(    8) = (   0.0000000   0.2886751   0.0855210), wk =   0.0277778
        k(    9) = (   0.0000000   0.3849002   0.0000000), wk =   0.0277778
        k(   10) = (   0.0000000   0.3849002   0.0855210), wk =   0.0277778
        k(   11) = (   0.0000000   0.4811252   0.0000000), wk =   0.0277778
        k(   12) = (   0.0000000   0.4811252   0.0855210), wk =   0.0277778
        k(   13) = (   0.0000000  -0.5773503   0.0000000), wk =   0.0138889
        k(   14) = (   0.0000000  -0.5773503   0.0855210), wk =   0.0277778
        k(   15) = (   0.0833333   0.1443376   0.0000000), wk =   0.0277778
        k(   16) = (   0.0833333   0.1443376   0.0855210), wk =   0.0555556
        k(   17) = (   0.0833333   0.2405626   0.0000000), wk =   0.0555556
        k(   18) = (   0.0833333   0.2405626   0.0855210), wk =   0.0555556
        k(   19) = (   0.0833333   0.3367877   0.0000000), wk =   0.0555556
        k(   20) = (   0.0833333   0.3367877   0.0855210), wk =   0.0555556
        k(   21) = (   0.0833333   0.4330127   0.0000000), wk =   0.0555556
        k(   22) = (   0.0833333   0.4330127   0.0855210), wk =   0.0555556
        k(   23) = (   0.0833333   0.5292377   0.0000000), wk =   0.0555556
        k(   24) = (   0.0833333   0.5292377   0.0855210), wk =   0.0555556
        k(   25) = (   0.1666667   0.2886751   0.0000000), wk =   0.0277778
        k(   26) = (   0.1666667   0.2886751   0.0855210), wk =   0.0555556
        k(   27) = (   0.1666667   0.3849002   0.0000000), wk =   0.0555556
        k(   28) = (   0.1666667   0.3849002   0.0855210), wk =   0.0555556
        k(   29) = (   0.1666667   0.4811252   0.0000000), wk =   0.0555556
        k(   30) = (   0.1666667   0.4811252   0.0855210), wk =   0.0555556
        k(   31) = (   0.1666667   0.5773503   0.0000000), wk =   0.0277778
        k(   32) = (   0.1666667   0.5773503   0.0855210), wk =   0.0555556
        k(   33) = (   0.2500000   0.4330127   0.0000000), wk =   0.0277778
        k(   34) = (   0.2500000   0.4330127   0.0855210), wk =   0.0555556
        k(   35) = (   0.2500000   0.5292377   0.0000000), wk =   0.0555556
        k(   36) = (   0.2500000   0.5292377   0.0855210), wk =   0.0555556
        k(   37) = (   0.3333333   0.5773503   0.0000000), wk =   0.0092593
        k(   38) = (   0.3333333   0.5773503   0.0855210), wk =   0.0185185
        k(   39) = (   0.0000000   0.0962250  -0.0855210), wk =   0.0277778
        k(   40) = (   0.0000000   0.1924501  -0.0855210), wk =   0.0277778
        k(   41) = (   0.0000000   0.2886751  -0.0855210), wk =   0.0277778
        k(   42) = (   0.0000000   0.3849002  -0.0855210), wk =   0.0277778
        k(   43) = (   0.0000000   0.4811252  -0.0855210), wk =   0.0277778
        k(   44) = (  -0.0833333   0.2405626  -0.0855210), wk =   0.0555556
        k(   45) = (  -0.0833333   0.3367877  -0.0855210), wk =   0.0555556
        k(   46) = (  -0.0833333   0.4330127  -0.0855210), wk =   0.0555556
        k(   47) = (  -0.0833333   0.5292377  -0.0855210), wk =   0.0555556
        k(   48) = (  -0.1666667   0.3849002  -0.0855210), wk =   0.0555556
        k(   49) = (  -0.1666667   0.4811252  -0.0855210), wk =   0.0555556
        k(   50) = (  -0.2500000   0.5292377  -0.0855210), wk =   0.0555556

                       cryst. coord.
        k(    1) = (   0.0000000   0.0000000   0.0000000), wk =   0.0046296
        k(    2) = (   0.0000000   0.0000000   0.3333333), wk =   0.0092593
        k(    3) = (   0.0000000   0.0833333   0.0000000), wk =   0.0277778
        k(    4) = (   0.0000000   0.0833333   0.3333333), wk =   0.0277778
        k(    5) = (   0.0000000   0.1666667   0.0000000), wk =   0.0277778
        k(    6) = (   0.0000000   0.1666667   0.3333333), wk =   0.0277778
        k(    7) = (   0.0000000   0.2500000   0.0000000), wk =   0.0277778
        k(    8) = (   0.0000000   0.2500000   0.3333333), wk =   0.0277778
        k(    9) = (   0.0000000   0.3333333   0.0000000), wk =   0.0277778
        k(   10) = (   0.0000000   0.3333333   0.3333333), wk =   0.0277778
        k(   11) = (   0.0000000   0.4166667   0.0000000), wk =   0.0277778
        k(   12) = (   0.0000000   0.4166667   0.3333333), wk =   0.0277778
        k(   13) = (   0.0000000  -0.5000000   0.0000000), wk =   0.0138889
        k(   14) = (   0.0000000  -0.5000000   0.3333333), wk =   0.0277778
        k(   15) = (   0.0833333   0.0833333   0.0000000), wk =   0.0277778
        k(   16) = (   0.0833333   0.0833333   0.3333333), wk =   0.0555556
        k(   17) = (   0.0833333   0.1666667   0.0000000), wk =   0.0555556
        k(   18) = (   0.0833333   0.1666667   0.3333333), wk =   0.0555556
        k(   19) = (   0.0833333   0.2500000   0.0000000), wk =   0.0555556
        k(   20) = (   0.0833333   0.2500000   0.3333333), wk =   0.0555556
        k(   21) = (   0.0833333   0.3333333   0.0000000), wk =   0.0555556
        k(   22) = (   0.0833333   0.3333333   0.3333333), wk =   0.0555556
        k(   23) = (   0.0833333   0.4166667   0.0000000), wk =   0.0555556
        k(   24) = (   0.0833333   0.4166667   0.3333333), wk =   0.0555556
        k(   25) = (   0.1666667   0.1666667   0.0000000), wk =   0.0277778
        k(   26) = (   0.1666667   0.1666667   0.3333333), wk =   0.0555556
        k(   27) = (   0.1666667   0.2500000   0.0000000), wk =   0.0555556
        k(   28) = (   0.1666667   0.2500000   0.3333333), wk =   0.0555556
        k(   29) = (   0.1666667   0.3333333   0.0000000), wk =   0.0555556
        k(   30) = (   0.1666667   0.3333333   0.3333333), wk =   0.0555556
        k(   31) = (   0.1666667   0.4166667   0.0000000), wk =   0.0277778
        k(   32) = (   0.1666667   0.4166667   0.3333333), wk =   0.0555556
        k(   33) = (   0.2500000   0.2500000   0.0000000), wk =   0.0277778
        k(   34) = (   0.2500000   0.2500000   0.3333333), wk =   0.0555556
        k(   35) = (   0.2500000   0.3333333   0.0000000), wk =   0.0555556
        k(   36) = (   0.2500000   0.3333333   0.3333333), wk =   0.0555556
        k(   37) = (   0.3333333   0.3333333   0.0000000), wk =   0.0092593
        k(   38) = (   0.3333333   0.3333333   0.3333333), wk =   0.0185185
        k(   39) = (   0.0000000   0.0833333  -0.3333333), wk =   0.0277778
        k(   40) = (   0.0000000   0.1666667  -0.3333333), wk =   0.0277778
        k(   41) = (   0.0000000   0.2500000  -0.3333333), wk =   0.0277778
        k(   42) = (   0.0000000   0.3333333  -0.3333333), wk =   0.0277778
        k(   43) = (   0.0000000   0.4166667  -0.3333333), wk =   0.0277778
        k(   44) = (  -0.0833333   0.2500000  -0.3333333), wk =   0.0555556
        k(   45) = (  -0.0833333   0.3333333  -0.3333333), wk =   0.0555556
        k(   46) = (  -0.0833333   0.4166667  -0.3333333), wk =   0.0555556
        k(   47) = (  -0.0833333   0.5000000  -0.3333333), wk =   0.0555556
        k(   48) = (  -0.1666667   0.4166667  -0.3333333), wk =   0.0555556
        k(   49) = (  -0.1666667   0.5000000  -0.3333333), wk =   0.0555556
        k(   50) = (  -0.2500000   0.5833333  -0.3333333), wk =   0.0555556

     Dense  grid:   145525 G-vectors     FFT dimensions: (  45,  45, 180)

     Dynamical RAM for                 wfc:       0.90 MB

     Dynamical RAM for     wfc (w. buffer):      45.97 MB

     Dynamical RAM for           str. fact:       0.55 MB

     Dynamical RAM for           local pot:       0.00 MB

     Dynamical RAM for          nlocal pot:       3.74 MB

     Dynamical RAM for                qrad:       7.32 MB

     Dynamical RAM for          rho,v,vnew:       1.90 MB

     Dynamical RAM for               rhoin:       0.63 MB

     Dynamical RAM for            rho*nmix:       4.44 MB

     Dynamical RAM for           G-vectors:       1.18 MB

     Dynamical RAM for          h,s,v(r/c):       0.12 MB

     Dynamical RAM for          <psi|beta>:       0.04 MB

     Dynamical RAM for                 psi:       1.80 MB

     Dynamical RAM for                hpsi:       1.80 MB

     Dynamical RAM for      wfcinit/wfcrot:       2.53 MB

     Estimated static dynamical RAM per process >      63.91 MB

     Estimated max dynamical RAM per process >      72.12 MB

     Estimated total dynamical RAM >     576.94 MB

     Initial potential from superposition of free atoms

     starting charge      51.9970, renormalised to      52.0000


     %%%%%%%%%%%%%%%%%%%%%%%%%%%%%%%%%%%%%%%%%%%%%%%%%%%%%%%%%%%%%%%%%%%%%%%%
     %                                                                      %
     % You are using vdW-DF, which was implemented by the Thonhauser group. %
     % Please cite the following two papers that made this development      %
     % possible and the two reviews that describe the various versions:     %
     %                                                                      %
     %   T. Thonhauser et al., PRL 115, 136402 (2015).                      %
     %   T. Thonhauser et al., PRB 76, 125112 (2007).                       %
     %   K. Berland et al., Rep. Prog. Phys. 78, 066501 (2015).             %
     %   D.C. Langreth et al., J. Phys.: Condens. Matter 21, 084203 (2009). %
     %                                                                      %
     % If you are calculating stress with vdW-DF, please also cite:         %
     %                                                                      %
     %   R. Sabatini et al., J. Phys.: Condens. Matter 24, 424209 (2012).   %
     %                                                                      %
     %%%%%%%%%%%%%%%%%%%%%%%%%%%%%%%%%%%%%%%%%%%%%%%%%%%%%%%%%%%%%%%%%%%%%%%%

     %%%%%%%%%%%%%%%%%%%%%%%%%%%%%%%%%%%%%%%%%%%%%%%%%%%%%%%%%%%%%%%%%%%%%%%%
     %                                                                      %
     %  vdW-DF NEWS:                                                        %
     %                                                                      %
     %  * vdW-DF3 is now available. DOI: 10.1021/acs.jctc.0c00471           %
     %    use with input_dft = 'vdW-DF3-opt1' or 'vdW-DF3-opt2'             %
     %                                                                      %
     %  * Unscreened and range-separated hybrid vdW-DF-cx functionals       %
     %    DOI: 10.1063/1.4986522 and 10.1088/1361-648X/ac2ad2               %
     %    use with input_dft = 'vdW-DF-cx0'    and 'vdW-DF-ahcx'            %
     %  * Unscreened and range-separated hybrid vdW-DF2-b86r functionals    %
     %    DOI: 10.1063/1.4986522 and DOI: 10.1103/PhysRevX.12.041003        %
     %    use with input_dft = 'vdW-DF2-br0' and 'vdW-DF2-ahbr'             %
     %                                                                      %
     %%%%%%%%%%%%%%%%%%%%%%%%%%%%%%%%%%%%%%%%%%%%%%%%%%%%%%%%%%%%%%%%%%%%%%%%


     Carrying out vdW-DF run using the following parameters:
     Nqs    =  20  Npoints =  1024  r_max =  100.000
     q_mesh =  0.00001000  0.04494208  0.09755937  0.15916263
               0.23128650  0.31572767  0.41458969  0.53033537
               0.66584808  0.82450364  1.01025438  1.22772762
               1.48234092  1.78043706  2.12944203  2.53805004
               3.01644009  3.57652955  4.23227104  5.00000000


     -----------------------------------------------
     Non-local corr. energy    =       0.55692238 Ry
     -----------------------------------------------

     Starting wfcs are   36 randomized atomic wfcs

     total cpu time spent up to now is       13.8 secs

     Self-consistent Calculation

     iteration #  1     ecut=   130.00 Ry     beta= 0.70
     Davidson diagonalization with overlap

---- Real-time Memory Report at c_bands before calling an iterative solver
             0 MiB given to the printing process from OS
             0 MiB allocation reported by mallinfo(arena+hblkhd)
             0 MiB available memory on the node where the printing process lives
------------------
     ethr =  1.00E-02,  avg # of iterations =  2.0


     -----------------------------------------------
     Non-local corr. energy    =       0.55888448 Ry
     -----------------------------------------------


     total cpu time spent up to now is       21.8 secs

     total energy              =    -369.20375059 Ry
     estimated scf accuracy    <       0.93451033 Ry

     iteration #  2     ecut=   130.00 Ry     beta= 0.70
     Davidson diagonalization with overlap

---- Real-time Memory Report at c_bands before calling an iterative solver
             0 MiB given to the printing process from OS
             0 MiB allocation reported by mallinfo(arena+hblkhd)
             0 MiB available memory on the node where the printing process lives
------------------
     ethr =  1.80E-03,  avg # of iterations =  6.8


     -----------------------------------------------
     Non-local corr. energy    =       0.55971173 Ry
     -----------------------------------------------


     total cpu time spent up to now is       37.0 secs

     total energy              =    -368.43000403 Ry
     estimated scf accuracy    <      10.17612446 Ry

     iteration #  3     ecut=   130.00 Ry     beta= 0.70
     Davidson diagonalization with overlap

---- Real-time Memory Report at c_bands before calling an iterative solver
             0 MiB given to the printing process from OS
             0 MiB allocation reported by mallinfo(arena+hblkhd)
             0 MiB available memory on the node where the printing process lives
------------------
     ethr =  1.80E-03,  avg # of iterations =  5.6


     -----------------------------------------------
     Non-local corr. energy    =       0.55641147 Ry
     -----------------------------------------------


     total cpu time spent up to now is       48.7 secs

     total energy              =    -369.75336698 Ry
     estimated scf accuracy    <       0.02514858 Ry

     iteration #  4     ecut=   130.00 Ry     beta= 0.70
     Davidson diagonalization with overlap

---- Real-time Memory Report at c_bands before calling an iterative solver
             0 MiB given to the printing process from OS
             0 MiB allocation reported by mallinfo(arena+hblkhd)
             0 MiB available memory on the node where the printing process lives
------------------
     ethr =  4.84E-05,  avg # of iterations =  5.9


     -----------------------------------------------
     Non-local corr. energy    =       0.55600348 Ry
     -----------------------------------------------


     total cpu time spent up to now is       60.8 secs

     total energy              =    -369.76543683 Ry
     estimated scf accuracy    <       0.03347299 Ry

     iteration #  5     ecut=   130.00 Ry     beta= 0.70
     Davidson diagonalization with overlap

---- Real-time Memory Report at c_bands before calling an iterative solver
             0 MiB given to the printing process from OS
             0 MiB allocation reported by mallinfo(arena+hblkhd)
             0 MiB available memory on the node where the printing process lives
------------------
     ethr =  4.84E-05,  avg # of iterations =  3.4


     -----------------------------------------------
     Non-local corr. energy    =       0.55606602 Ry
     -----------------------------------------------


     total cpu time spent up to now is       69.7 secs

     total energy              =    -369.76952061 Ry
     estimated scf accuracy    <       0.00337036 Ry

     iteration #  6     ecut=   130.00 Ry     beta= 0.70
     Davidson diagonalization with overlap

---- Real-time Memory Report at c_bands before calling an iterative solver
             0 MiB given to the printing process from OS
             0 MiB allocation reported by mallinfo(arena+hblkhd)
             0 MiB available memory on the node where the printing process lives
------------------
     ethr =  6.48E-06,  avg # of iterations =  4.6


     -----------------------------------------------
     Non-local corr. energy    =       0.55621704 Ry
     -----------------------------------------------


     total cpu time spent up to now is       79.7 secs

     total energy              =    -369.77034535 Ry
     estimated scf accuracy    <       0.00019503 Ry

     iteration #  7     ecut=   130.00 Ry     beta= 0.70
     Davidson diagonalization with overlap

---- Real-time Memory Report at c_bands before calling an iterative solver
             0 MiB given to the printing process from OS
             0 MiB allocation reported by mallinfo(arena+hblkhd)
             0 MiB available memory on the node where the printing process lives
------------------
     ethr =  3.75E-07,  avg # of iterations =  4.9


     -----------------------------------------------
     Non-local corr. energy    =       0.55622058 Ry
     -----------------------------------------------


     total cpu time spent up to now is       90.2 secs

     total energy              =    -369.77037236 Ry
     estimated scf accuracy    <       0.00023921 Ry

     iteration #  8     ecut=   130.00 Ry     beta= 0.70
     Davidson diagonalization with overlap

---- Real-time Memory Report at c_bands before calling an iterative solver
             0 MiB given to the printing process from OS
             0 MiB allocation reported by mallinfo(arena+hblkhd)
             0 MiB available memory on the node where the printing process lives
------------------
     ethr =  3.75E-07,  avg # of iterations =  2.7


     -----------------------------------------------
     Non-local corr. energy    =       0.55624392 Ry
     -----------------------------------------------


     total cpu time spent up to now is       98.1 secs

     total energy              =    -369.77037783 Ry
     estimated scf accuracy    <       0.00004593 Ry

     iteration #  9     ecut=   130.00 Ry     beta= 0.70
     Davidson diagonalization with overlap

---- Real-time Memory Report at c_bands before calling an iterative solver
             0 MiB given to the printing process from OS
             0 MiB allocation reported by mallinfo(arena+hblkhd)
             0 MiB available memory on the node where the printing process lives
------------------
     ethr =  8.83E-08,  avg # of iterations =  4.8


     -----------------------------------------------
     Non-local corr. energy    =       0.55625225 Ry
     -----------------------------------------------


     total cpu time spent up to now is      108.3 secs

     total energy              =    -369.77039281 Ry
     estimated scf accuracy    <       0.00001032 Ry

     iteration # 10     ecut=   130.00 Ry     beta= 0.70
     Davidson diagonalization with overlap

---- Real-time Memory Report at c_bands before calling an iterative solver
             0 MiB given to the printing process from OS
             0 MiB allocation reported by mallinfo(arena+hblkhd)
             0 MiB available memory on the node where the printing process lives
------------------
     ethr =  1.99E-08,  avg # of iterations =  2.5


     -----------------------------------------------
     Non-local corr. energy    =       0.55625083 Ry
     -----------------------------------------------


     total cpu time spent up to now is      116.1 secs

     total energy              =    -369.77039300 Ry
     estimated scf accuracy    <       0.00000265 Ry

     iteration # 11     ecut=   130.00 Ry     beta= 0.70
     Davidson diagonalization with overlap

---- Real-time Memory Report at c_bands before calling an iterative solver
             0 MiB given to the printing process from OS
             0 MiB allocation reported by mallinfo(arena+hblkhd)
             0 MiB available memory on the node where the printing process lives
------------------
     ethr =  5.10E-09,  avg # of iterations =  4.7


     -----------------------------------------------
     Non-local corr. energy    =       0.55624732 Ry
     -----------------------------------------------


     total cpu time spent up to now is      126.0 secs

     total energy              =    -369.77039354 Ry
     estimated scf accuracy    <       0.00000111 Ry

     iteration # 12     ecut=   130.00 Ry     beta= 0.70
     Davidson diagonalization with overlap

---- Real-time Memory Report at c_bands before calling an iterative solver
             0 MiB given to the printing process from OS
             0 MiB allocation reported by mallinfo(arena+hblkhd)
             0 MiB available memory on the node where the printing process lives
------------------
     ethr =  2.13E-09,  avg # of iterations =  2.2


     -----------------------------------------------
     Non-local corr. energy    =       0.55624636 Ry
     -----------------------------------------------


     total cpu time spent up to now is      133.8 secs

     total energy              =    -369.77039360 Ry
     estimated scf accuracy    <       0.00000013 Ry

     iteration # 13     ecut=   130.00 Ry     beta= 0.70
     Davidson diagonalization with overlap

---- Real-time Memory Report at c_bands before calling an iterative solver
             0 MiB given to the printing process from OS
             0 MiB allocation reported by mallinfo(arena+hblkhd)
             0 MiB available memory on the node where the printing process lives
------------------
     ethr =  2.57E-10,  avg # of iterations =  5.1


     -----------------------------------------------
     Non-local corr. energy    =       0.55624674 Ry
     -----------------------------------------------


     total cpu time spent up to now is      146.0 secs

     total energy              =    -369.77039365 Ry
     estimated scf accuracy    <       0.00000021 Ry

     iteration # 14     ecut=   130.00 Ry     beta= 0.70
     Davidson diagonalization with overlap

---- Real-time Memory Report at c_bands before calling an iterative solver
             0 MiB given to the printing process from OS
             0 MiB allocation reported by mallinfo(arena+hblkhd)
             0 MiB available memory on the node where the printing process lives
------------------
     ethr =  2.57E-10,  avg # of iterations =  1.8


     -----------------------------------------------
     Non-local corr. energy    =       0.55624699 Ry
     -----------------------------------------------


     total cpu time spent up to now is      153.3 secs

     End of self-consistent calculation

          k = 0.0000 0.0000 0.0000 ( 18169 PWs)   bands (ev):

   -50.6248 -50.6248 -24.7877 -24.7876 -24.5627 -24.5627 -24.5627 -24.5627
    -4.0544  -3.7820  -2.8656  -2.4218   4.0241   5.0700   7.3376   7.6102
     7.6102   7.6232   7.6233   8.7037   8.7038   8.7500   8.7501   9.6702
     9.6726  10.8368

     occupation numbers 
     1.0000   1.0000   1.0000   1.0000   1.0000   1.0000   1.0000   1.0000
     1.0000   1.0000   1.0000   1.0000   1.0000   1.0000   1.0000   1.0000
     1.0000   1.0000   1.0000   1.0000   1.0000   1.0000   1.0000   1.0000
     1.0000   1.0000

          k = 0.0000 0.0000 0.0855 ( 18175 PWs)   bands (ev):

   -50.6248 -50.6248 -24.7877 -24.7877 -24.5627 -24.5627 -24.5627 -24.5627
    -4.0003  -3.8683  -2.7384  -2.5209   4.2313   4.7315   7.6134   7.6134
     7.6199   7.6199   7.8221   8.7153   8.7153   8.7385   8.7385   8.7592
    10.3467  10.7222

     occupation numbers 
     1.0000   1.0000   1.0000   1.0000   1.0000   1.0000   1.0000   1.0000
     1.0000   1.0000   1.0000   1.0000   1.0000   1.0000   1.0000   1.0000
     1.0000   1.0000   1.0000   1.0000   1.0000   1.0000   1.0000   1.0000
     1.0000   1.0000

          k = 0.0000 0.0962 0.0000 ( 18155 PWs)   bands (ev):

   -50.6222 -50.6222 -24.7825 -24.7825 -24.5892 -24.5892 -24.5687 -24.5687
    -3.9499  -3.6791  -2.8153  -2.3845   4.1453   5.1884   7.1385   7.3750
     7.3968   7.7159   7.7346   8.3128   8.5361   8.5873   8.8243   9.6855
     9.8178  10.6370

     occupation numbers 
     1.0000   1.0000   1.0000   1.0000   1.0000   1.0000   1.0000   1.0000
     1.0000   1.0000   1.0000   1.0000   1.0000   1.0000   1.0000   1.0000
     1.0000   1.0000   1.0000   1.0000   1.0000   1.0000   1.0000   1.0000
     1.0000   1.0000

          k = 0.0000 0.0962 0.0855 ( 18118 PWs)   bands (ev):

   -50.6222 -50.6222 -24.7825 -24.7825 -24.5892 -24.5892 -24.5687 -24.5687
    -3.8963  -3.7654  -2.6907  -2.4798   4.3480   4.8434   7.3775   7.3894
     7.5692   7.7204   7.7297   8.1547   8.5490   8.5746   8.8619   9.1303
    10.2841  10.5592

     occupation numbers 
     1.0000   1.0000   1.0000   1.0000   1.0000   1.0000   1.0000   1.0000
     1.0000   1.0000   1.0000   1.0000   1.0000   1.0000   1.0000   1.0000
     1.0000   1.0000   1.0000   1.0000   1.0000   1.0000   1.0000   1.0000
     1.0000   1.0000

          k = 0.0000 0.1925 0.0000 ( 18135 PWs)   bands (ev):

   -50.6150 -50.6150 -24.7684 -24.7683 -24.6611 -24.6611 -24.5852 -24.5852
    -3.6513  -3.3875  -2.6715  -2.2794   4.4614   5.4707   6.7084   6.8231
     6.8916   7.6032   8.0101   8.0450   8.1424   8.2032   8.8098   9.6463
     9.7012  10.0773

     occupation numbers 
     1.0000   1.0000   1.0000   1.0000   1.0000   1.0000   1.0000   1.0000
     1.0000   1.0000   1.0000   1.0000   1.0000   1.0000   1.0000   1.0000
     1.0000   1.0000   1.0000   1.0000   1.0000   1.0000   1.0000   1.0000
     1.0000   1.0000

          k = 0.0000 0.1925 0.0855 ( 18157 PWs)   bands (ev):

   -50.6150 -50.6150 -24.7683 -24.7683 -24.6611 -24.6611 -24.5852 -24.5852
    -3.6001  -3.4733  -2.5547  -2.3638   4.6471   5.1155   6.8217   6.8472
     7.1040   7.4909   8.0165   8.0331   8.1607   8.1903   8.8965   9.2222
     9.9607  10.0596

     occupation numbers 
     1.0000   1.0000   1.0000   1.0000   1.0000   1.0000   1.0000   1.0000
     1.0000   1.0000   1.0000   1.0000   1.0000   1.0000   1.0000   1.0000
     1.0000   1.0000   1.0000   1.0000   1.0000   1.0000   1.0000   1.0000
     1.0000   1.0000

          k = 0.0000 0.2887 0.0000 ( 18181 PWs)   bands (ev):

   -50.6052 -50.6052 -24.7581 -24.7581 -24.7489 -24.7489 -24.6076 -24.6075
    -3.2050  -2.9590  -2.4572  -2.1275   4.7770   5.5424   6.2111   6.2669
     6.5838   6.8424   7.7024   7.7719   8.4167   8.4831   8.5604   9.2590
     9.3589   9.4853

     occupation numbers 
     1.0000   1.0000   1.0000   1.0000   1.0000   1.0000   1.0000   1.0000
     1.0000   1.0000   1.0000   1.0000   1.0000   1.0000   1.0000   1.0000
     1.0000   1.0000   1.0000   1.0000   1.0000   1.0000   1.0000   1.0000
     1.0000   1.0000

          k = 0.0000 0.2887 0.0855 ( 18167 PWs)   bands (ev):

   -50.6052 -50.6052 -24.7581 -24.7581 -24.7489 -24.7489 -24.6076 -24.6075
    -3.1588  -3.0422  -2.3536  -2.1951   4.9190   5.2755   6.2415   6.2903
     6.7028   6.8301   7.7185   7.7532   8.4347   8.4678   8.6695   8.9841
     9.4508   9.4858

     occupation numbers 
     1.0000   1.0000   1.0000   1.0000   1.0000   1.0000   1.0000   1.0000
     1.0000   1.0000   1.0000   1.0000   1.0000   1.0000   1.0000   1.0000
     1.0000   1.0000   1.0000   1.0000   1.0000   1.0000   1.0000   1.0000
     1.0000   1.0000

          k = 0.0000 0.3849 0.0000 ( 18203 PWs)   bands (ev):

   -50.5953 -50.5953 -24.8536 -24.8536 -24.7294 -24.7294 -24.6298 -24.6298
    -2.6947  -2.4855  -2.2143  -1.9673   4.7213   5.1281   5.7252   5.9919
     6.1406   6.6300   7.3330   7.4084   8.2831   8.8104   8.8184   8.9284
     9.0543   9.3132

     occupation numbers 
     1.0000   1.0000   1.0000   1.0000   1.0000   1.0000   1.0000   1.0000
     1.0000   1.0000   1.0000   1.0000   1.0000   1.0000   1.0000   1.0000
     1.0000   1.0000   1.0000   1.0000   1.0000   1.0000   1.0000   1.0000
     1.0000   1.0000

          k = 0.0000 0.3849 0.0855 ( 18203 PWs)   bands (ev):

   -50.5953 -50.5953 -24.8536 -24.8536 -24.7294 -24.7294 -24.6298 -24.6298
    -2.6576  -2.5611  -2.1293  -2.0139   4.8050   5.0032   5.7667   5.8696
     6.3468   6.5601   7.3508   7.3885   8.3699   8.6089   8.8410   8.8999
     9.1798   9.2811

     occupation numbers 
     1.0000   1.0000   1.0000   1.0000   1.0000   1.0000   1.0000   1.0000
     1.0000   1.0000   1.0000   1.0000   1.0000   1.0000   1.0000   1.0000
     1.0000   1.0000   1.0000   1.0000   1.0000   1.0000   1.0000   1.0000
     1.0000   1.0000

          k = 0.0000 0.4811 0.0000 ( 18195 PWs)   bands (ev):

   -50.5881 -50.5881 -24.9226 -24.9226 -24.7151 -24.7151 -24.6460 -24.6460
    -2.2550  -2.1045  -2.0054  -1.8513   4.3977   4.7139   5.3566   5.6313
     5.8545   6.5301   7.0934   7.1723   8.1448   8.5079   9.0694   9.2296
     9.2445   9.4904

     occupation numbers 
     1.0000   1.0000   1.0000   1.0000   1.0000   1.0000   1.0000   1.0000
     1.0000   1.0000   1.0000   1.0000   1.0000   1.0000   1.0000   1.0000
     1.0000   1.0000   1.0000   1.0000   1.0000   1.0000   1.0000   1.0000
     1.0000   1.0000

          k = 0.0000 0.4811 0.0855 ( 18191 PWs)   bands (ev):

   -50.5881 -50.5881 -24.9226 -24.9226 -24.7151 -24.7151 -24.6460 -24.6460
    -2.2302  -2.1642  -1.9448  -1.8770   4.4666   4.6235   5.3861   5.4838
     6.1162   6.4150   7.1121   7.1515   8.2098   8.3818   9.1136   9.2011
     9.3234   9.4451

     occupation numbers 
     1.0000   1.0000   1.0000   1.0000   1.0000   1.0000   1.0000   1.0000
     1.0000   1.0000   1.0000   1.0000   1.0000   1.0000   1.0000   1.0000
     1.0000   1.0000   1.0000   1.0000   1.0000   1.0000   1.0000   1.0000
     1.0000   1.0000

          k = 0.0000-0.5774 0.0000 ( 18220 PWs)   bands (ev):

   -50.5855 -50.5855 -24.9477 -24.9477 -24.7098 -24.7098 -24.6520 -24.6520
    -2.0691  -1.9605  -1.9138  -1.8165   4.2370   4.5494   5.2185   5.4426
     5.7817   6.4442   7.0109   7.0909   8.1251   8.3824   9.1535   9.3540
     9.4668   9.5838

     occupation numbers 
     1.0000   1.0000   1.0000   1.0000   1.0000   1.0000   1.0000   1.0000
     1.0000   1.0000   1.0000   1.0000   1.0000   1.0000   1.0000   1.0000
     1.0000   1.0000   1.0000   1.0000   1.0000   1.0000   1.0000   1.0000
     1.0000   1.0000

          k = 0.0000-0.5774 0.0855 ( 18222 PWs)   bands (ev):

   -50.5855 -50.5855 -24.9477 -24.9477 -24.7098 -24.7098 -24.6520 -24.6520
    -2.0516  -2.0051  -1.8720  -1.8313   4.3065   4.4622   5.2397   5.3234
     6.0218   6.3244   7.0299   7.0698   8.1777   8.3044   9.2036   9.3038
     9.5031   9.5602

     occupation numbers 
     1.0000   1.0000   1.0000   1.0000   1.0000   1.0000   1.0000   1.0000
     1.0000   1.0000   1.0000   1.0000   1.0000   1.0000   1.0000   1.0000
     1.0000   1.0000   1.0000   1.0000   1.0000   1.0000   1.0000   1.0000
     1.0000   1.0000

          k = 0.0833 0.1443 0.0000 ( 18145 PWs)   bands (ev):

   -50.6173 -50.6173 -24.7729 -24.7728 -24.6371 -24.6371 -24.5813 -24.5813
    -3.7482  -3.4817  -2.7181  -2.3132   4.3663   5.3950   6.8521   7.0030
     7.0220   7.8664   7.9119   7.9333   8.1419   8.2216   8.9526   9.6743
     9.8352  10.2576

     occupation numbers 
     1.0000   1.0000   1.0000   1.0000   1.0000   1.0000   1.0000   1.0000
     1.0000   1.0000   1.0000   1.0000   1.0000   1.0000   1.0000   1.0000
     1.0000   1.0000   1.0000   1.0000   1.0000   1.0000   1.0000   1.0000
     1.0000   1.0000

          k = 0.0833 0.1443 0.0855 ( 18136 PWs)   bands (ev):

   -50.6173 -50.6173 -24.7728 -24.7728 -24.6371 -24.6371 -24.5813 -24.5813
    -3.6961  -3.5678  -2.5987  -2.4012   4.5586   5.0396   6.9931   7.0133
     7.2534   7.7239   7.9154   7.9259   8.1603   8.1990   9.0165   9.2923
    10.0935  10.2272

     occupation numbers 
     1.0000   1.0000   1.0000   1.0000   1.0000   1.0000   1.0000   1.0000
     1.0000   1.0000   1.0000   1.0000   1.0000   1.0000   1.0000   1.0000
     1.0000   1.0000   1.0000   1.0000   1.0000   1.0000   1.0000   1.0000
     1.0000   1.0000

          k = 0.0833 0.2406 0.0000 ( 18177 PWs)   bands (ev):

   -50.6088 -50.6088 -24.7560 -24.7560 -24.7180 -24.7180 -24.6042 -24.6042
    -3.3748  -3.1206  -2.5382  -2.1835   4.7022   5.6182   6.4611   6.4922
     6.5998   7.2011   7.5740   7.7191   8.2147   8.2540   8.9604   9.5321
     9.5627   9.6680

     occupation numbers 
     1.0000   1.0000   1.0000   1.0000   1.0000   1.0000   1.0000   1.0000
     1.0000   1.0000   1.0000   1.0000   1.0000   1.0000   1.0000   1.0000
     1.0000   1.0000   1.0000   1.0000   1.0000   1.0000   1.0000   1.0000
     1.0000   1.0000

          k = 0.0833 0.2406 0.0855 ( 18171 PWs)   bands (ev):

   -50.6088 -50.6088 -24.7560 -24.7560 -24.7180 -24.7180 -24.6042 -24.6042
    -3.3264  -3.2052  -2.4291  -2.2577   4.8665   5.2868   6.4662   6.5038
     6.8756   7.1457   7.5956   7.6722   8.2254   8.2449   9.0287   9.2671
     9.6639   9.6743

     occupation numbers 
     1.0000   1.0000   1.0000   1.0000   1.0000   1.0000   1.0000   1.0000
     1.0000   1.0000   1.0000   1.0000   1.0000   1.0000   1.0000   1.0000
     1.0000   1.0000   1.0000   1.0000   1.0000   1.0000   1.0000   1.0000
     1.0000   1.0000

          k = 0.0833 0.3368 0.0000 ( 18174 PWs)   bands (ev):

   -50.5990 -50.5990 -24.8101 -24.8101 -24.7366 -24.7365 -24.6307 -24.6307
    -2.8928  -2.6660  -2.3066  -2.0240   4.8533   5.3855   5.9974   6.1408
     6.4186   6.6129   7.1427   7.3809   8.4394   8.4924   8.7228   9.0962
     9.2691   9.3737

     occupation numbers 
     1.0000   1.0000   1.0000   1.0000   1.0000   1.0000   1.0000   1.0000
     1.0000   1.0000   1.0000   1.0000   1.0000   1.0000   1.0000   1.0000
     1.0000   1.0000   1.0000   1.0000   1.0000   1.0000   1.0000   1.0000
     1.0000   1.0000

          k = 0.0833 0.3368 0.0855 ( 18180 PWs)   bands (ev):

   -50.5990 -50.5990 -24.8101 -24.8101 -24.7365 -24.7365 -24.6307 -24.6307
    -2.8516  -2.7456  -2.2133  -2.0794   4.9602   5.2173   6.0220   6.1022
     6.5027   6.6019   7.2205   7.3431   8.4491   8.4723   8.7765   8.9441
     9.3221   9.3613

     occupation numbers 
     1.0000   1.0000   1.0000   1.0000   1.0000   1.0000   1.0000   1.0000
     1.0000   1.0000   1.0000   1.0000   1.0000   1.0000   1.0000   1.0000
     1.0000   1.0000   1.0000   1.0000   1.0000   1.0000   1.0000   1.0000
     1.0000   1.0000

          k = 0.0833 0.4330 0.0000 ( 18213 PWs)   bands (ev):

   -50.5904 -50.5904 -24.8887 -24.8887 -24.7196 -24.7196 -24.6535 -24.6535
    -2.4085  -2.2313  -2.0749  -1.8806   4.6282   4.9579   5.5271   5.7570
     5.9921   6.6313   6.9644   7.1819   8.3912   8.5019   8.6375   8.6995
     9.3980   9.4923

     occupation numbers 
     1.0000   1.0000   1.0000   1.0000   1.0000   1.0000   1.0000   1.0000
     1.0000   1.0000   1.0000   1.0000   1.0000   1.0000   1.0000   1.0000
     1.0000   1.0000   1.0000   1.0000   1.0000   1.0000   1.0000   1.0000
     1.0000   1.0000

          k = 0.0833 0.4330 0.0855 ( 18192 PWs)   bands (ev):

   -50.5904 -50.5904 -24.8887 -24.8887 -24.7196 -24.7196 -24.6535 -24.6535
    -2.3785  -2.2991  -2.0028  -1.9149   4.6989   4.8617   5.5567   5.6452
     6.2008   6.4802   7.0624   7.1624   8.3936   8.4551   8.6345   8.6917
     9.4303   9.4753

     occupation numbers 
     1.0000   1.0000   1.0000   1.0000   1.0000   1.0000   1.0000   1.0000
     1.0000   1.0000   1.0000   1.0000   1.0000   1.0000   1.0000   1.0000
     1.0000   1.0000   1.0000   1.0000   1.0000   1.0000   1.0000   1.0000
     1.0000   1.0000

          k = 0.0833 0.5292 0.0000 ( 18194 PWs)   bands (ev):

   -50.5855 -50.5855 -24.9337 -24.9337 -24.7098 -24.7098 -24.6666 -24.6666
    -2.0802  -1.9641  -1.9146  -1.8049   4.3792   4.6831   5.2345   5.3767
     5.8532   6.4986   6.9528   7.0768   8.1510   8.4904   8.6008   8.8113
     9.5978   9.7502

     occupation numbers 
     1.0000   1.0000   1.0000   1.0000   1.0000   1.0000   1.0000   1.0000
     1.0000   1.0000   1.0000   1.0000   1.0000   1.0000   1.0000   1.0000
     1.0000   1.0000   1.0000   1.0000   1.0000   1.0000   1.0000   1.0000
     1.0000   1.0000

          k = 0.0833 0.5292 0.0855 ( 18195 PWs)   bands (ev):

   -50.5855 -50.5855 -24.9337 -24.9337 -24.7098 -24.7098 -24.6666 -24.6666
    -2.0617  -2.0124  -1.8679  -1.8218   4.4467   4.5981   5.2492   5.3058
     6.0400   6.3387   7.0220   7.0767   8.2012   8.3579   8.6759   8.7731
     9.6437   9.7179

     occupation numbers 
     1.0000   1.0000   1.0000   1.0000   1.0000   1.0000   1.0000   1.0000
     1.0000   1.0000   1.0000   1.0000   1.0000   1.0000   1.0000   1.0000
     1.0000   1.0000   1.0000   1.0000   1.0000   1.0000   1.0000   1.0000
     1.0000   1.0000

          k = 0.1667 0.2887 0.0000 ( 18167 PWs)   bands (ev):

   -50.6003 -50.6003 -24.7878 -24.7878 -24.7392 -24.7391 -24.6374 -24.6374
    -2.9631  -2.7308  -2.3387  -2.0435   4.9100   5.5223   6.2208   6.3023
     6.5409   6.6204   6.7748   7.2992   8.2407   8.2564   9.0661   9.2735
     9.3717   9.3933

     occupation numbers 
     1.0000   1.0000   1.0000   1.0000   1.0000   1.0000   1.0000   1.0000
     1.0000   1.0000   1.0000   1.0000   1.0000   1.0000   1.0000   1.0000
     1.0000   1.0000   1.0000   1.0000   1.0000   1.0000   1.0000   1.0000
     1.0000   1.0000

          k = 0.1667 0.2887 0.0855 ( 18178 PWs)   bands (ev):

   -50.6003 -50.6003 -24.7878 -24.7878 -24.7392 -24.7391 -24.6374 -24.6374
    -2.9205  -2.8116  -2.2424  -2.1021   5.0319   5.3282   6.1983   6.2553
     6.6084   6.6258   6.9634   7.2232   8.2409   8.2474   9.0800   9.1765
     9.3808   9.3925

     occupation numbers 
     1.0000   1.0000   1.0000   1.0000   1.0000   1.0000   1.0000   1.0000
     1.0000   1.0000   1.0000   1.0000   1.0000   1.0000   1.0000   1.0000
     1.0000   1.0000   1.0000   1.0000   1.0000   1.0000   1.0000   1.0000
     1.0000   1.0000

          k = 0.1667 0.3849 0.0000 ( 18172 PWs)   bands (ev):

   -50.5917 -50.5917 -24.8533 -24.8533 -24.7223 -24.7222 -24.6740 -24.6740
    -2.4971  -2.3058  -2.1114  -1.8934   4.8664   5.2146   5.7229   5.8593
     6.2854   6.5451   6.6883   7.1812   7.9086   8.0295   8.7620   8.9247
     9.4282   9.4501

     occupation numbers 
     1.0000   1.0000   1.0000   1.0000   1.0000   1.0000   1.0000   1.0000
     1.0000   1.0000   1.0000   1.0000   1.0000   1.0000   1.0000   1.0000
     1.0000   1.0000   1.0000   1.0000   1.0000   1.0000   1.0000   1.0000
     1.0000   1.0000

          k = 0.1667 0.3849 0.0855 ( 18194 PWs)   bands (ev):

   -50.5917 -50.5917 -24.8533 -24.8533 -24.7223 -24.7223 -24.6740 -24.6740
    -2.4642  -2.3777  -2.0329  -1.9330   4.9428   5.1154   5.7539   5.8231
     6.3041   6.4023   6.9273   7.1436   7.9234   7.9896   8.7727   8.8554
     9.4391   9.4495

     occupation numbers 
     1.0000   1.0000   1.0000   1.0000   1.0000   1.0000   1.0000   1.0000
     1.0000   1.0000   1.0000   1.0000   1.0000   1.0000   1.0000   1.0000
     1.0000   1.0000   1.0000   1.0000   1.0000   1.0000   1.0000   1.0000
     1.0000   1.0000

          k = 0.1667 0.4811 0.0000 ( 18191 PWs)   bands (ev):

   -50.5855 -50.5855 -24.8996 -24.8996 -24.7099 -24.7099 -24.7020 -24.7020
    -2.1012  -1.9719  -1.9147  -1.7830   4.7124   4.9874   5.2386   5.3018
     6.1010   6.6383   6.6742   7.1825   7.7012   7.9764   8.2836   8.6570
     9.6174   9.7477

     occupation numbers 
     1.0000   1.0000   1.0000   1.0000   1.0000   1.0000   1.0000   1.0000
     1.0000   1.0000   1.0000   1.0000   1.0000   1.0000   1.0000   1.0000
     1.0000   1.0000   1.0000   1.0000   1.0000   1.0000   1.0000   1.0000
     1.0000   1.0000

          k = 0.1667 0.4811 0.0855 ( 18180 PWs)   bands (ev):

   -50.5855 -50.5855 -24.8996 -24.8996 -24.7099 -24.7099 -24.7020 -24.7020
    -2.0810  -2.0264  -1.8597  -1.8039   4.7730   4.9088   5.2557   5.2867
     6.1737   6.3788   6.9388   7.1398   7.7709   7.9134   8.3485   8.5381
     9.6568   9.7199

     occupation numbers 
     1.0000   1.0000   1.0000   1.0000   1.0000   1.0000   1.0000   1.0000
     1.0000   1.0000   1.0000   1.0000   1.0000   1.0000   1.0000   1.0000
     1.0000   1.0000   1.0000   1.0000   1.0000   1.0000   1.0000   1.0000
     1.0000   1.0000

          k = 0.1667 0.5774 0.0000 ( 18181 PWs)   bands (ev):

   -50.5832 -50.5832 -24.9163 -24.9163 -24.7125 -24.7125 -24.7053 -24.7053
    -1.9347  -1.8501  -1.8273  -1.7502   4.6426   4.9121   5.0579   5.0993
     5.9627   6.5265   6.8036   7.1738   7.6982   7.9902   8.0748   8.5241
     9.7622   9.9465

     occupation numbers 
     1.0000   1.0000   1.0000   1.0000   1.0000   1.0000   1.0000   1.0000
     1.0000   1.0000   1.0000   1.0000   1.0000   1.0000   1.0000   1.0000
     1.0000   1.0000   1.0000   1.0000   1.0000   1.0000   1.0000   1.0000
     1.0000   1.0000

          k = 0.1667 0.5774 0.0855 ( 18195 PWs)   bands (ev):

   -50.5832 -50.5832 -24.9163 -24.9163 -24.7125 -24.7125 -24.7053 -24.7053
    -1.9217  -1.8869  -1.7923  -1.7613   4.7019   4.8345   5.0701   5.0893
     6.0550   6.2982   7.0058   7.1580   7.7695   7.9126   8.1589   8.3832
     9.8158   9.9054

     occupation numbers 
     1.0000   1.0000   1.0000   1.0000   1.0000   1.0000   1.0000   1.0000
     1.0000   1.0000   1.0000   1.0000   1.0000   1.0000   1.0000   1.0000
     1.0000   1.0000   1.0000   1.0000   1.0000   1.0000   1.0000   1.0000
     1.0000   1.0000

          k = 0.2500 0.4330 0.0000 ( 18191 PWs)   bands (ev):

   -50.5855 -50.5855 -24.8768 -24.8768 -24.7255 -24.7255 -24.7099 -24.7099
    -2.1114  -1.9761  -1.9143  -1.7726   4.9119   5.1644   5.1906   5.3305
     6.5307   6.5614   6.5837   7.1865   7.2251   7.4471   8.3701   8.7368
     9.6094   9.7083

     occupation numbers 
     1.0000   1.0000   1.0000   1.0000   1.0000   1.0000   1.0000   1.0000
     1.0000   1.0000   1.0000   1.0000   1.0000   1.0000   1.0000   1.0000
     1.0000   1.0000   1.0000   1.0000   1.0000   1.0000   1.0000   1.0000
     1.0000   1.0000

          k = 0.2500 0.4330 0.0855 ( 18197 PWs)   bands (ev):

   -50.5855 -50.5855 -24.8768 -24.8768 -24.7255 -24.7255 -24.7099 -24.7099
    -2.0902  -2.0331  -1.8556  -1.7953   4.9662   5.0828   5.2439   5.3029
     6.3843   6.4547   6.8939   7.1423   7.2986   7.4009   8.4242   8.6175
     9.6363   9.6855

     occupation numbers 
     1.0000   1.0000   1.0000   1.0000   1.0000   1.0000   1.0000   1.0000
     1.0000   1.0000   1.0000   1.0000   1.0000   1.0000   1.0000   1.0000
     1.0000   1.0000   1.0000   1.0000   1.0000   1.0000   1.0000   1.0000
     1.0000   1.0000

          k = 0.2500 0.5292 0.0000 ( 18197 PWs)   bands (ev):

   -50.5819 -50.5819 -24.8815 -24.8815 -24.7640 -24.7640 -24.7027 -24.7027
    -1.8556  -1.7877  -1.7749  -1.7092   4.8450   4.9885   5.0594   5.2515
     6.2196   6.5367   6.7850   6.8396   7.1625   7.2647   8.0666   8.4632
     9.8819  10.0460

     occupation numbers 
     1.0000   1.0000   1.0000   1.0000   1.0000   1.0000   1.0000   1.0000
     1.0000   1.0000   1.0000   1.0000   1.0000   1.0000   1.0000   1.0000
     1.0000   1.0000   1.0000   1.0000   1.0000   1.0000   1.0000   1.0000
     1.0000   1.0000

          k = 0.2500 0.5292 0.0855 ( 18199 PWs)   bands (ev):

   -50.5819 -50.5819 -24.8815 -24.8815 -24.7640 -24.7640 -24.7027 -24.7027
    -1.8457  -1.8186  -1.7446  -1.7187   4.8714   4.9354   5.1292   5.2202
     6.2280   6.3699   6.7803   6.9068   7.2248   7.3951   8.0851   8.3138
     9.9216  10.0025

     occupation numbers 
     1.0000   1.0000   1.0000   1.0000   1.0000   1.0000   1.0000   1.0000
     1.0000   1.0000   1.0000   1.0000   1.0000   1.0000   1.0000   1.0000
     1.0000   1.0000   1.0000   1.0000   1.0000   1.0000   1.0000   1.0000
     1.0000   1.0000

          k = 0.3333 0.5774 0.0000 ( 18207 PWs)   bands (ev):

   -50.5805 -50.5805 -24.8522 -24.8522 -24.8095 -24.8095 -24.7001 -24.7001
    -1.7417  -1.7417  -1.6998  -1.6998   4.6901   4.8579   5.5152   5.5152
     5.9783   6.2497   6.7019   6.7019   7.0860   7.0860   8.1701   8.1701
    10.0695  10.2353

     occupation numbers 
     1.0000   1.0000   1.0000   1.0000   1.0000   1.0000   1.0000   1.0000
     1.0000   1.0000   1.0000   1.0000   1.0000   1.0000   1.0000   1.0000
     1.0000   1.0000   1.0000   1.0000   1.0000   1.0000   1.0000   1.0000
     1.0000   1.0000

          k = 0.3333 0.5774 0.0855 ( 18177 PWs)   bands (ev):

   -50.5805 -50.5805 -24.8522 -24.8522 -24.8095 -24.8095 -24.7001 -24.7001
    -1.7416  -1.7416  -1.6999  -1.6999   4.7267   4.8097   5.5395   5.5395
     6.0519   6.1867   6.5128   6.5128   7.3658   7.3658   8.0465   8.0465
    10.1041  10.1859

     occupation numbers 
     1.0000   1.0000   1.0000   1.0000   1.0000   1.0000   1.0000   1.0000
     1.0000   1.0000   1.0000   1.0000   1.0000   1.0000   1.0000   1.0000
     1.0000   1.0000   1.0000   1.0000   1.0000   1.0000   1.0000   1.0000
     1.0000   1.0000

          k = 0.0000 0.0962-0.0855 ( 18118 PWs)   bands (ev):

   -50.6222 -50.6222 -24.7825 -24.7825 -24.5892 -24.5892 -24.5687 -24.5687
    -3.8963  -3.7654  -2.6907  -2.4798   4.3480   4.8434   7.3775   7.3894
     7.5693   7.7204   7.7297   8.1547   8.5490   8.5746   8.8618   9.1304
    10.2841  10.5592

     occupation numbers 
     1.0000   1.0000   1.0000   1.0000   1.0000   1.0000   1.0000   1.0000
     1.0000   1.0000   1.0000   1.0000   1.0000   1.0000   1.0000   1.0000
     1.0000   1.0000   1.0000   1.0000   1.0000   1.0000   1.0000   1.0000
     1.0000   1.0000

          k = 0.0000 0.1925-0.0855 ( 18157 PWs)   bands (ev):

   -50.6150 -50.6150 -24.7683 -24.7683 -24.6611 -24.6611 -24.5852 -24.5852
    -3.6001  -3.4733  -2.5547  -2.3638   4.6471   5.1155   6.8212   6.8476
     7.1042   7.4909   8.0165   8.0331   8.1607   8.1903   8.8962   9.2226
     9.9607  10.0596

     occupation numbers 
     1.0000   1.0000   1.0000   1.0000   1.0000   1.0000   1.0000   1.0000
     1.0000   1.0000   1.0000   1.0000   1.0000   1.0000   1.0000   1.0000
     1.0000   1.0000   1.0000   1.0000   1.0000   1.0000   1.0000   1.0000
     1.0000   1.0000

          k = 0.0000 0.2887-0.0855 ( 18167 PWs)   bands (ev):

   -50.6052 -50.6052 -24.7581 -24.7581 -24.7489 -24.7489 -24.6076 -24.6075
    -3.1588  -3.0422  -2.3535  -2.1951   4.9189   5.2757   6.2395   6.2927
     6.7021   6.8304   7.7185   7.7532   8.4347   8.4678   8.6688   8.9852
     9.4499   9.4863

     occupation numbers 
     1.0000   1.0000   1.0000   1.0000   1.0000   1.0000   1.0000   1.0000
     1.0000   1.0000   1.0000   1.0000   1.0000   1.0000   1.0000   1.0000
     1.0000   1.0000   1.0000   1.0000   1.0000   1.0000   1.0000   1.0000
     1.0000   1.0000

          k = 0.0000 0.3849-0.0855 ( 18203 PWs)   bands (ev):

   -50.5953 -50.5953 -24.8536 -24.8536 -24.7294 -24.7294 -24.6298 -24.6298
    -2.6576  -2.5611  -2.1293  -2.0139   4.8048   5.0033   5.7643   5.8728
     6.3457   6.5603   7.3508   7.3885   8.3689   8.6105   8.8409   8.8999
     9.1788   9.2816

     occupation numbers 
     1.0000   1.0000   1.0000   1.0000   1.0000   1.0000   1.0000   1.0000
     1.0000   1.0000   1.0000   1.0000   1.0000   1.0000   1.0000   1.0000
     1.0000   1.0000   1.0000   1.0000   1.0000   1.0000   1.0000   1.0000
     1.0000   1.0000

          k = 0.0000 0.4811-0.0855 ( 18191 PWs)   bands (ev):

   -50.5881 -50.5881 -24.9226 -24.9226 -24.7151 -24.7151 -24.6460 -24.6460
    -2.2302  -2.1642  -1.9448  -1.8770   4.4666   4.6235   5.3849   5.4853
     6.1159   6.4149   7.1121   7.1515   8.2090   8.3830   9.1136   9.2011
     9.3226   9.4455

     occupation numbers 
     1.0000   1.0000   1.0000   1.0000   1.0000   1.0000   1.0000   1.0000
     1.0000   1.0000   1.0000   1.0000   1.0000   1.0000   1.0000   1.0000
     1.0000   1.0000   1.0000   1.0000   1.0000   1.0000   1.0000   1.0000
     1.0000   1.0000

          k =-0.0833 0.2406-0.0855 ( 18171 PWs)   bands (ev):

   -50.6088 -50.6088 -24.7560 -24.7560 -24.7180 -24.7180 -24.6042 -24.6042
    -3.3264  -3.2052  -2.4291  -2.2577   4.8665   5.2869   6.4655   6.5045
     6.8756   7.1456   7.5958   7.6719   8.2254   8.2449   9.0284   9.2676
     9.6635   9.6746

     occupation numbers 
     1.0000   1.0000   1.0000   1.0000   1.0000   1.0000   1.0000   1.0000
     1.0000   1.0000   1.0000   1.0000   1.0000   1.0000   1.0000   1.0000
     1.0000   1.0000   1.0000   1.0000   1.0000   1.0000   1.0000   1.0000
     1.0000   1.0000

          k =-0.0833 0.3368-0.0855 ( 18180 PWs)   bands (ev):

   -50.5990 -50.5990 -24.8101 -24.8101 -24.7365 -24.7365 -24.6307 -24.6307
    -2.8516  -2.7456  -2.2133  -2.0794   4.9601   5.2174   6.0196   6.1053
     6.5012   6.6025   7.2206   7.3429   8.4492   8.4722   8.7757   8.9453
     9.3214   9.3616

     occupation numbers 
     1.0000   1.0000   1.0000   1.0000   1.0000   1.0000   1.0000   1.0000
     1.0000   1.0000   1.0000   1.0000   1.0000   1.0000   1.0000   1.0000
     1.0000   1.0000   1.0000   1.0000   1.0000   1.0000   1.0000   1.0000
     1.0000   1.0000

          k =-0.0833 0.4330-0.0855 ( 18192 PWs)   bands (ev):

   -50.5904 -50.5904 -24.8887 -24.8887 -24.7196 -24.7196 -24.6535 -24.6535
    -2.3785  -2.2991  -2.0028  -1.9149   4.6988   4.8618   5.5552   5.6470
     6.2007   6.4799   7.0625   7.1623   8.3930   8.4554   8.6356   8.6910
     9.4299   9.4755

     occupation numbers 
     1.0000   1.0000   1.0000   1.0000   1.0000   1.0000   1.0000   1.0000
     1.0000   1.0000   1.0000   1.0000   1.0000   1.0000   1.0000   1.0000
     1.0000   1.0000   1.0000   1.0000   1.0000   1.0000   1.0000   1.0000
     1.0000   1.0000

          k =-0.0833 0.5292-0.0855 ( 18195 PWs)   bands (ev):

   -50.5855 -50.5855 -24.9337 -24.9337 -24.7098 -24.7098 -24.6666 -24.6666
    -2.0617  -2.0124  -1.8679  -1.8218   4.4467   4.5981   5.2486   5.3065
     6.0400   6.3386   7.0221   7.0766   8.2009   8.3583   8.6758   8.7732
     9.6435   9.7181

     occupation numbers 
     1.0000   1.0000   1.0000   1.0000   1.0000   1.0000   1.0000   1.0000
     1.0000   1.0000   1.0000   1.0000   1.0000   1.0000   1.0000   1.0000
     1.0000   1.0000   1.0000   1.0000   1.0000   1.0000   1.0000   1.0000
     1.0000   1.0000

          k =-0.1667 0.3849-0.0855 ( 18194 PWs)   bands (ev):

   -50.5917 -50.5917 -24.8533 -24.8533 -24.7223 -24.7223 -24.6740 -24.6740
    -2.4642  -2.3777  -2.0329  -1.9330   4.9427   5.1155   5.7536   5.8233
     6.3035   6.4034   6.9262   7.1441   7.9237   7.9894   8.7717   8.8563
     9.4391   9.4494

     occupation numbers 
     1.0000   1.0000   1.0000   1.0000   1.0000   1.0000   1.0000   1.0000
     1.0000   1.0000   1.0000   1.0000   1.0000   1.0000   1.0000   1.0000
     1.0000   1.0000   1.0000   1.0000   1.0000   1.0000   1.0000   1.0000
     1.0000   1.0000

          k =-0.1667 0.4811-0.0855 ( 18180 PWs)   bands (ev):

   -50.5855 -50.5855 -24.8996 -24.8996 -24.7099 -24.7099 -24.7020 -24.7020
    -2.0810  -2.0264  -1.8597  -1.8039   4.7729   4.9089   5.2556   5.2867
     6.1737   6.3791   6.9384   7.1398   7.7713   7.9132   8.3482   8.5384
     9.6567   9.7200

     occupation numbers 
     1.0000   1.0000   1.0000   1.0000   1.0000   1.0000   1.0000   1.0000
     1.0000   1.0000   1.0000   1.0000   1.0000   1.0000   1.0000   1.0000
     1.0000   1.0000   1.0000   1.0000   1.0000   1.0000   1.0000   1.0000
     1.0000   1.0000

          k =-0.2500 0.5292-0.0855 ( 18199 PWs)   bands (ev):

   -50.5819 -50.5819 -24.8815 -24.8815 -24.7640 -24.7640 -24.7027 -24.7027
    -1.8457  -1.8186  -1.7446  -1.7186   4.8713   4.9355   5.1292   5.2202
     6.2277   6.3703   6.7822   6.9038   7.2265   7.3945   8.0850   8.3138
     9.9216  10.0026

     occupation numbers 
     1.0000   1.0000   1.0000   1.0000   1.0000   1.0000   1.0000   1.0000
     1.0000   1.0000   1.0000   1.0000   1.0000   1.0000   1.0000   1.0000
     1.0000   1.0000   1.0000   1.0000   1.0000   1.0000   1.0000   1.0000
     1.0000   1.0000

     highest occupied level (ev):    10.8368

!    total energy              =    -369.77039358 Ry
     estimated scf accuracy    <       0.00000008 Ry

     The total energy is the sum of the following terms:
     one-electron contribution =    -172.03614488 Ry
     hartree contribution      =     108.13548376 Ry
     xc contribution           =     -66.67985743 Ry
     ewald contribution        =    -239.18987503 Ry

     convergence has been achieved in  14 iterations


     -----------------------------------------------
     Non-local corr. energy    =       0.55624699 Ry
     -----------------------------------------------


     Forces acting on atoms (cartesian axes, Ry/au):

     atom    1 type  2   force =     0.00000000    0.00000000    0.00003437
     atom    2 type  2   force =     0.00000000    0.00000000   -0.00003437
     atom    3 type  1   force =    -0.00000000    0.00000000   -0.00000062
     atom    4 type  1   force =     0.00000000   -0.00000000    0.00000062
     atom    5 type  1   force =    -0.00000000   -0.00000000   -0.00008058
     atom    6 type  1   force =     0.00000000    0.00000000    0.00008058
     The non-local contrib.  to forces
     atom    1 type  2   force =     0.00000000   -0.00000000    0.00011911
     atom    2 type  2   force =     0.00000000    0.00000000   -0.00011911
     atom    3 type  1   force =     0.00000000   -0.00000000   -0.24537760
     atom    4 type  1   force =     0.00000000    0.00000000    0.24537760
     atom    5 type  1   force =     0.00000000    0.00000000   -0.24545557
     atom    6 type  1   force =     0.00000000   -0.00000000    0.24545557
     The ionic contribution  to forces
     atom    1 type  2   force =     0.00000912   -0.00000526    0.11344433
     atom    2 type  2   force =    -0.00000912    0.00000526   -0.11344433
     atom    3 type  1   force =    -0.00000464    0.00000268   14.11979524
     atom    4 type  1   force =     0.00000464   -0.00000268  -14.11979524
     atom    5 type  1   force =     0.00000464   -0.00000268   14.02412167
     atom    6 type  1   force =    -0.00000464    0.00000268  -14.02412167
     The local contribution  to forces
     atom    1 type  2   force =     0.00014606   -0.00001205   -0.11492522
     atom    2 type  2   force =    -0.00008346    0.00012047    0.11492522
     atom    3 type  1   force =    -0.00000376    0.00000542  -13.88020501
     atom    4 type  1   force =     0.00000657   -0.00000054   13.88020501
     atom    5 type  1   force =     0.00000657   -0.00000054  -13.78386327
     atom    6 type  1   force =    -0.00000376    0.00000542   13.78386327
     The core correction contribution to forces
     atom    1 type  2   force =    -0.00000316    0.00000026   -0.00000500
     atom    2 type  2   force =     0.00000181   -0.00000261    0.00000500
     atom    3 type  1   force =     0.00000050   -0.00000073    0.00537173
     atom    4 type  1   force =    -0.00000088    0.00000007   -0.00537173
     atom    5 type  1   force =    -0.00000088    0.00000007    0.00537670
     atom    6 type  1   force =     0.00000050   -0.00000073   -0.00537670
     The Hubbard contrib.    to forces
     atom    1 type  2   force =     0.00000000    0.00000000    0.00000000
     atom    2 type  2   force =     0.00000000    0.00000000    0.00000000
     atom    3 type  1   force =     0.00000000    0.00000000    0.00000000
     atom    4 type  1   force =     0.00000000    0.00000000    0.00000000
     atom    5 type  1   force =     0.00000000    0.00000000    0.00000000
     atom    6 type  1   force =     0.00000000    0.00000000    0.00000000
     The SCF correction term to forces
     atom    1 type  2   force =    -0.00000000    0.00000000    0.00140116
     atom    2 type  2   force =     0.00000000   -0.00000000   -0.00140116
     atom    3 type  1   force =    -0.00000000    0.00000000    0.00041502
     atom    4 type  1   force =     0.00000000   -0.00000000   -0.00041502
     atom    5 type  1   force =    -0.00000000   -0.00000000   -0.00026010
     atom    6 type  1   force =     0.00000000   -0.00000000    0.00026010

     Total force =     0.000124     Total SCF correction =     0.002099
     SCF correction compared to forces is large: reduce conv_thr to get better values


     Computing stress (Cartesian axis) and pressure



     -----------------------------------------------
     Non-local corr. energy    =       0.55624699 Ry
     -----------------------------------------------

          total   stress  (Ry/bohr**3)                   (kbar)     P=        0.14
   0.00000013   0.00000000   0.00000000            0.02        0.00        0.00
   0.00000000   0.00000013   0.00000000            0.00        0.02        0.00
   0.00000000   0.00000000   0.00000267            0.00        0.00        0.39

     kinetic stress (kbar)  16151.95      0.00      0.00
                                0.00  16151.95      0.00
                                0.00      0.00  16240.51

     local   stress (kbar) -33812.89     -0.01      0.00
                               -0.01 -33812.90     -0.00
                                0.00     -0.00  18785.47

     nonloc. stress (kbar)  12780.53     -0.00      0.00
                               -0.00  12780.53      0.00
                                0.00      0.00  12809.80

     hartree stress (kbar)  15199.43     -0.00     -0.00
                               -0.00  15199.43      0.00
                               -0.00      0.00  -8500.29

     exc-cor stress (kbar)   -291.39      0.00     -0.00
                                0.00   -291.39      0.00
                               -0.00      0.00   -287.75

     corecor stress (kbar)  -3591.90     -0.00     -0.00
                               -0.00  -3591.90      0.00
                               -0.00      0.00  -3595.93

     ewald   stress (kbar)  -6472.46      0.01     -0.00
                                0.01  -6472.44      0.00
                               -0.00      0.00 -35493.57

     hubbard stress (kbar)      0.00      0.00      0.00
                                0.00      0.00      0.00
                                0.00      0.00      0.00

     DFT-D   stress (kbar)      0.00      0.00      0.00
                                0.00      0.00      0.00
                                0.00      0.00      0.00

     XDM     stress (kbar)      0.00      0.00      0.00
                                0.00      0.00      0.00
                                0.00      0.00      0.00

     dft-nl  stress (kbar)     36.74     -0.00     -0.00
                               -0.00     36.74      0.00
                               -0.00      0.00     42.15

     TS-vdW  stress (kbar)      0.00      0.00      0.00
                                0.00      0.00      0.00
                                0.00      0.00      0.00

     MDB     stress (kbar)      0.00      0.00      0.00
                                0.00      0.00      0.00
                                0.00      0.00      0.00

     3D-RISM stress (kbar)      0.00      0.00      0.00
                                0.00      0.00      0.00
                                0.00      0.00      0.00


     BFGS Geometry Optimization
     Energy error            =      0.0E+00 Ry
     Gradient error          =      8.1E-05 Ry/Bohr
     Cell gradient error     =      3.9E-01 kbar

     bfgs converged in   1 scf cycles and   0 bfgs steps
     (criteria: energy <  1.0E-05 Ry, force <  1.0E-04 Ry/Bohr, cell <  5.0E-01 kbar)

     End of BFGS Geometry Optimization

     Final enthalpy           =    -369.7703935816 Ry
Begin final coordinates
     new unit-cell volume =    726.40708 a.u.^3 (   107.64242 Ang^3 )
     density =      7.65059 g/cm^3

CELL_PARAMETERS (alat=  5.99258900)
   1.000000000   0.000000000   0.000000000
  -0.500000000   0.866025404   0.000000000
   0.000000000   0.000000000   3.897677991

ATOMIC_POSITIONS (crystal)
Mo            0.3333330000        0.6666667000       -0.2501932205
Mo            0.6666667000        0.3333330000        0.2501932205
S             0.6666667000        0.3333330000       -0.1231512107
S             0.3333330000        0.6666667000        0.1231512107
S             0.3333330000        0.6666667000        0.3772299166
S             0.6666667000        0.3333330000       -0.3772299166
End final coordinates



     Writing config-only to output data dir ./tmp/MoS2_bulk_pbe_nsoc.save/

     Final scf calculation at the relaxed structure.
     The G-vectors are recalculated for the final unit cell
     Results may differ from those at the preceding step.

     Parallelization info
     --------------------
     sticks:   dense  smooth     PW     G-vecs:    dense   smooth      PW
     Min         160     160     45                18182    18182    2721
     Max         161     161     46                18197    18197    2736
     Sum        1285    1285    361               145525   145525   21823

     Using Slab Decomposition



     bravais-lattice index     =            4
     lattice parameter (alat)  =       5.9926  a.u.
     unit-cell volume          =     726.4071 (a.u.)^3
     number of atoms/cell      =            6
     number of atomic types    =            2
     number of electrons       =        52.00
     number of Kohn-Sham states=           26
     kinetic-energy cutoff     =     130.0000  Ry
     charge density cutoff     =     520.0000  Ry
     scf convergence threshold =      1.0E-07
     mixing beta               =       0.7000
     number of iterations used =            8  plain     mixing
     press convergence thresh. =      5.0E-01
     Exchange-correlation= VDW-DF2-B86R
                           (   1   4  26   0   2   0   0)

     celldm(1)=   5.992589  celldm(2)=   0.000000  celldm(3)=   3.897678
     celldm(4)=   0.000000  celldm(5)=   0.000000  celldm(6)=   0.000000

     crystal axes: (cart. coord. in units of alat)
               a(1) = (   1.000000   0.000000   0.000000 )  
               a(2) = (  -0.500000   0.866025   0.000000 )  
               a(3) = (   0.000000   0.000000   3.897678 )  

     reciprocal axes: (cart. coord. in units 2 pi/alat)
               b(1) = (  1.000000  0.577350 -0.000000 )  
               b(2) = (  0.000000  1.154701  0.000000 )  
               b(3) = (  0.000000 -0.000000  0.256563 )  


     PseudoPot. # 1 for S  read from file:
     ../../../Pseudo/PBE/S.upf
     MD5 check sum: b72b6a9ca752e39de1a6cc592280dae2
     Pseudo is Norm-conserving + core correction, Zval =  6.0
     Generated using ONCVPSP code by D. R. Hamann
     Using radial grid of 1148 points,  6 beta functions with: 
                l(1) =   0
                l(2) =   0
                l(3) =   1
                l(4) =   1
                l(5) =   2
                l(6) =   2

     PseudoPot. # 2 for Mo read from file:
     ../../../Pseudo/PBE/Mo.upf
     MD5 check sum: 7ca7a9feba7bf08d88d14bc7fbf60c1e
     Pseudo is Norm-conserving + core correction, Zval = 14.0
     Generated using ONCVPSP code by D. R. Hamann
     Using radial grid of 1640 points,  6 beta functions with: 
                l(1) =   0
                l(2) =   0
                l(3) =   1
                l(4) =   1
                l(5) =   2
                l(6) =   2

     atomic species   valence    mass     pseudopotential
        S              6.00    32.06500     S ( 1.00)
        Mo            14.00   183.84000     Mo( 1.00)

     12 Sym. Ops., with inversion, found


                                    s                        frac. trans.

      isym =  1     identity                                     

 cryst.   s( 1) = (     1          0          0      )
                  (     0          1          0      )
                  (     0          0          1      )

 cart.    s( 1) = (  1.0000000  0.0000000  0.0000000 )
                  (  0.0000000  1.0000000  0.0000000 )
                  (  0.0000000  0.0000000  1.0000000 )


      isym =  2     180 deg rotation - cart. axis [1,0,0]        

 cryst.   s( 2) = (     1          0          0      )
                  (    -1         -1          0      )
                  (     0          0         -1      )

 cart.    s( 2) = (  1.0000000  0.0000000  0.0000000 )
                  (  0.0000000 -1.0000000  0.0000000 )
                  (  0.0000000  0.0000000 -1.0000000 )


      isym =  3     120 deg rotation - cryst. axis [0,0,1]       

 cryst.   s( 3) = (     0          1          0      )
                  (    -1         -1          0      )
                  (     0          0          1      )

 cart.    s( 3) = ( -0.5000000 -0.8660254  0.0000000 )
                  (  0.8660254 -0.5000000  0.0000000 )
                  (  0.0000000  0.0000000  1.0000000 )


      isym =  4     120 deg rotation - cryst. axis [0,0,-1]      

 cryst.   s( 4) = (    -1         -1          0      )
                  (     1          0          0      )
                  (     0          0          1      )

 cart.    s( 4) = ( -0.5000000  0.8660254  0.0000000 )
                  ( -0.8660254 -0.5000000  0.0000000 )
                  (  0.0000000  0.0000000  1.0000000 )


      isym =  5     180 deg rotation - cryst. axis [0,1,0]       

 cryst.   s( 5) = (    -1         -1          0      )
                  (     0          1          0      )
                  (     0          0         -1      )

 cart.    s( 5) = ( -0.5000000 -0.8660254  0.0000000 )
                  ( -0.8660254  0.5000000  0.0000000 )
                  (  0.0000000  0.0000000 -1.0000000 )


      isym =  6     180 deg rotation - cryst. axis [1,1,0]       

 cryst.   s( 6) = (     0          1          0      )
                  (     1          0          0      )
                  (     0          0         -1      )

 cart.    s( 6) = ( -0.5000000  0.8660254  0.0000000 )
                  (  0.8660254  0.5000000  0.0000000 )
                  (  0.0000000  0.0000000 -1.0000000 )


      isym =  7     inversion                                    

 cryst.   s( 7) = (    -1          0          0      )
                  (     0         -1          0      )
                  (     0          0         -1      )

 cart.    s( 7) = ( -1.0000000  0.0000000  0.0000000 )
                  (  0.0000000 -1.0000000  0.0000000 )
                  (  0.0000000  0.0000000 -1.0000000 )


      isym =  8     inv. 180 deg rotation - cart. axis [1,0,0]   

 cryst.   s( 8) = (    -1          0          0      )
                  (     1          1          0      )
                  (     0          0          1      )

 cart.    s( 8) = ( -1.0000000  0.0000000  0.0000000 )
                  (  0.0000000  1.0000000  0.0000000 )
                  (  0.0000000  0.0000000  1.0000000 )


      isym =  9     inv. 120 deg rotation - cryst. axis [0,0,1]  

 cryst.   s( 9) = (     0         -1          0      )
                  (     1          1          0      )
                  (     0          0         -1      )

 cart.    s( 9) = (  0.5000000  0.8660254  0.0000000 )
                  ( -0.8660254  0.5000000  0.0000000 )
                  (  0.0000000  0.0000000 -1.0000000 )


      isym = 10     inv. 120 deg rotation - cryst. axis [0,0,-1] 

 cryst.   s(10) = (     1          1          0      )
                  (    -1          0          0      )
                  (     0          0         -1      )

 cart.    s(10) = (  0.5000000 -0.8660254  0.0000000 )
                  (  0.8660254  0.5000000  0.0000000 )
                  (  0.0000000  0.0000000 -1.0000000 )


      isym = 11     inv. 180 deg rotation - cryst. axis [0,1,0]  

 cryst.   s(11) = (     1          1          0      )
                  (     0         -1          0      )
                  (     0          0          1      )

 cart.    s(11) = (  0.5000000  0.8660254  0.0000000 )
                  (  0.8660254 -0.5000000  0.0000000 )
                  (  0.0000000  0.0000000  1.0000000 )


      isym = 12     inv. 180 deg rotation - cryst. axis [1,1,0]  

 cryst.   s(12) = (     0         -1          0      )
                  (    -1          0          0      )
                  (     0          0          1      )

 cart.    s(12) = (  0.5000000 -0.8660254  0.0000000 )
                  ( -0.8660254 -0.5000000  0.0000000 )
                  (  0.0000000  0.0000000  1.0000000 )


     point group D_3d (-3m) 
[...]
     6.3843   6.4547   6.8939   7.1423   7.2986   7.4008   8.4242   8.6175
     9.6362   9.6855

     occupation numbers 
     1.0000   1.0000   1.0000   1.0000   1.0000   1.0000   1.0000   1.0000
     1.0000   1.0000   1.0000   1.0000   1.0000   1.0000   1.0000   1.0000
     1.0000   1.0000   1.0000   1.0000   1.0000   1.0000   1.0000   1.0000
     1.0000   1.0000

          k = 0.2500 0.5292 0.0000 ( 18197 PWs)   bands (ev):

   -50.5820 -50.5820 -24.8817 -24.8817 -24.7642 -24.7642 -24.7029 -24.7029
    -1.8556  -1.7877  -1.7749  -1.7092   4.8450   4.9885   5.0594   5.2515
     6.2196   6.5367   6.7850   6.8396   7.1625   7.2647   8.0666   8.4632
     9.8818  10.0460

     occupation numbers 
     1.0000   1.0000   1.0000   1.0000   1.0000   1.0000   1.0000   1.0000
     1.0000   1.0000   1.0000   1.0000   1.0000   1.0000   1.0000   1.0000
     1.0000   1.0000   1.0000   1.0000   1.0000   1.0000   1.0000   1.0000
     1.0000   1.0000

          k = 0.2500 0.5292 0.0855 ( 18199 PWs)   bands (ev):

   -50.5820 -50.5820 -24.8817 -24.8817 -24.7642 -24.7642 -24.7029 -24.7029
    -1.8456  -1.8186  -1.7446  -1.7187   4.8714   4.9354   5.1292   5.2202
     6.2280   6.3699   6.7804   6.9068   7.2248   7.3952   8.0851   8.3138
     9.9215  10.0025

     occupation numbers 
     1.0000   1.0000   1.0000   1.0000   1.0000   1.0000   1.0000   1.0000
     1.0000   1.0000   1.0000   1.0000   1.0000   1.0000   1.0000   1.0000
     1.0000   1.0000   1.0000   1.0000   1.0000   1.0000   1.0000   1.0000
     1.0000   1.0000

          k = 0.3333 0.5774 0.0000 ( 18207 PWs)   bands (ev):

   -50.5807 -50.5807 -24.8523 -24.8523 -24.8097 -24.8097 -24.7003 -24.7003
    -1.7417  -1.7417  -1.6998  -1.6998   4.6901   4.8579   5.5152   5.5152
     5.9783   6.2497   6.7019   6.7019   7.0860   7.0860   8.1701   8.1701
    10.0694  10.2352

     occupation numbers 
     1.0000   1.0000   1.0000   1.0000   1.0000   1.0000   1.0000   1.0000
     1.0000   1.0000   1.0000   1.0000   1.0000   1.0000   1.0000   1.0000
     1.0000   1.0000   1.0000   1.0000   1.0000   1.0000   1.0000   1.0000
     1.0000   1.0000

          k = 0.3333 0.5774 0.0855 ( 18177 PWs)   bands (ev):

   -50.5807 -50.5807 -24.8523 -24.8523 -24.8097 -24.8097 -24.7003 -24.7003
    -1.7416  -1.7416  -1.6999  -1.6999   4.7267   4.8097   5.5395   5.5395
     6.0519   6.1867   6.5128   6.5128   7.3658   7.3658   8.0465   8.0465
    10.1040  10.1858

     occupation numbers 
     1.0000   1.0000   1.0000   1.0000   1.0000   1.0000   1.0000   1.0000
     1.0000   1.0000   1.0000   1.0000   1.0000   1.0000   1.0000   1.0000
     1.0000   1.0000   1.0000   1.0000   1.0000   1.0000   1.0000   1.0000
     1.0000   1.0000

          k = 0.0000 0.0962-0.0855 ( 18118 PWs)   bands (ev):

   -50.6224 -50.6224 -24.7827 -24.7827 -24.5894 -24.5894 -24.5689 -24.5689
    -3.8963  -3.7654  -2.6907  -2.4798   4.3480   4.8434   7.3774   7.3894
     7.5692   7.7204   7.7297   8.1547   8.5489   8.5745   8.8618   9.1303
    10.2840  10.5591

     occupation numbers 
     1.0000   1.0000   1.0000   1.0000   1.0000   1.0000   1.0000   1.0000
     1.0000   1.0000   1.0000   1.0000   1.0000   1.0000   1.0000   1.0000
     1.0000   1.0000   1.0000   1.0000   1.0000   1.0000   1.0000   1.0000
     1.0000   1.0000

          k = 0.0000 0.1925-0.0855 ( 18157 PWs)   bands (ev):

   -50.6152 -50.6152 -24.7685 -24.7685 -24.6613 -24.6613 -24.5853 -24.5853
    -3.6001  -3.4733  -2.5547  -2.3638   4.6471   5.1155   6.8212   6.8476
     7.1041   7.4908   8.0164   8.0331   8.1606   8.1902   8.8962   9.2226
     9.9606  10.0595

     occupation numbers 
     1.0000   1.0000   1.0000   1.0000   1.0000   1.0000   1.0000   1.0000
     1.0000   1.0000   1.0000   1.0000   1.0000   1.0000   1.0000   1.0000
     1.0000   1.0000   1.0000   1.0000   1.0000   1.0000   1.0000   1.0000
     1.0000   1.0000

          k = 0.0000 0.2887-0.0855 ( 18167 PWs)   bands (ev):

   -50.6054 -50.6054 -24.7582 -24.7582 -24.7491 -24.7491 -24.6077 -24.6077
    -3.1588  -3.0422  -2.3535  -2.1951   4.9189   5.2756   6.2395   6.2926
     6.7020   6.8304   7.7185   7.7531   8.4347   8.4678   8.6688   8.9852
     9.4499   9.4862

     occupation numbers 
     1.0000   1.0000   1.0000   1.0000   1.0000   1.0000   1.0000   1.0000
     1.0000   1.0000   1.0000   1.0000   1.0000   1.0000   1.0000   1.0000
     1.0000   1.0000   1.0000   1.0000   1.0000   1.0000   1.0000   1.0000
     1.0000   1.0000

          k = 0.0000 0.3849-0.0855 ( 18203 PWs)   bands (ev):

   -50.5955 -50.5955 -24.8537 -24.8537 -24.7296 -24.7296 -24.6300 -24.6300
    -2.6576  -2.5611  -2.1293  -2.0139   4.8048   5.0033   5.7644   5.8726
     6.3458   6.5602   7.3508   7.3884   8.3689   8.6105   8.8409   8.8999
     9.1788   9.2815

     occupation numbers 
     1.0000   1.0000   1.0000   1.0000   1.0000   1.0000   1.0000   1.0000
     1.0000   1.0000   1.0000   1.0000   1.0000   1.0000   1.0000   1.0000
     1.0000   1.0000   1.0000   1.0000   1.0000   1.0000   1.0000   1.0000
     1.0000   1.0000

          k = 0.0000 0.4811-0.0855 ( 18191 PWs)   bands (ev):

   -50.5883 -50.5883 -24.9227 -24.9227 -24.7153 -24.7153 -24.6462 -24.6462
    -2.2302  -2.1642  -1.9448  -1.8770   4.4666   4.6235   5.3849   5.4852
     6.1160   6.4149   7.1121   7.1514   8.2090   8.3830   9.1136   9.2011
     9.3226   9.4455

     occupation numbers 
     1.0000   1.0000   1.0000   1.0000   1.0000   1.0000   1.0000   1.0000
     1.0000   1.0000   1.0000   1.0000   1.0000   1.0000   1.0000   1.0000
     1.0000   1.0000   1.0000   1.0000   1.0000   1.0000   1.0000   1.0000
     1.0000   1.0000

          k =-0.0833 0.2406-0.0855 ( 18171 PWs)   bands (ev):

   -50.6090 -50.6090 -24.7562 -24.7562 -24.7182 -24.7182 -24.6043 -24.6043
    -3.3264  -3.2052  -2.4291  -2.2577   4.8665   5.2868   6.4655   6.5045
     6.8756   7.1456   7.5958   7.6718   8.2253   8.2448   9.0284   9.2675
     9.6634   9.6745

     occupation numbers 
     1.0000   1.0000   1.0000   1.0000   1.0000   1.0000   1.0000   1.0000
     1.0000   1.0000   1.0000   1.0000   1.0000   1.0000   1.0000   1.0000
     1.0000   1.0000   1.0000   1.0000   1.0000   1.0000   1.0000   1.0000
     1.0000   1.0000

          k =-0.0833 0.3368-0.0855 ( 18180 PWs)   bands (ev):

   -50.5991 -50.5991 -24.8102 -24.8102 -24.7367 -24.7367 -24.6308 -24.6308
    -2.8516  -2.7456  -2.2133  -2.0794   4.9601   5.2174   6.0197   6.1052
     6.5013   6.6024   7.2206   7.3429   8.4492   8.4722   8.7757   8.9453
     9.3213   9.3616

     occupation numbers 
     1.0000   1.0000   1.0000   1.0000   1.0000   1.0000   1.0000   1.0000
     1.0000   1.0000   1.0000   1.0000   1.0000   1.0000   1.0000   1.0000
     1.0000   1.0000   1.0000   1.0000   1.0000   1.0000   1.0000   1.0000
     1.0000   1.0000

          k =-0.0833 0.4330-0.0855 ( 18192 PWs)   bands (ev):

   -50.5906 -50.5906 -24.8888 -24.8888 -24.7198 -24.7198 -24.6536 -24.6536
    -2.3785  -2.2991  -2.0028  -1.9149   4.6988   4.8618   5.5553   5.6468
     6.2008   6.4799   7.0624   7.1623   8.3930   8.4554   8.6356   8.6910
     9.4299   9.4755

     occupation numbers 
     1.0000   1.0000   1.0000   1.0000   1.0000   1.0000   1.0000   1.0000
     1.0000   1.0000   1.0000   1.0000   1.0000   1.0000   1.0000   1.0000
     1.0000   1.0000   1.0000   1.0000   1.0000   1.0000   1.0000   1.0000
     1.0000   1.0000

          k =-0.0833 0.5292-0.0855 ( 18195 PWs)   bands (ev):

   -50.5856 -50.5856 -24.9338 -24.9338 -24.7100 -24.7100 -24.6668 -24.6668
    -2.0617  -2.0124  -1.8679  -1.8218   4.4466   4.5981   5.2486   5.3064
     6.0400   6.3386   7.0221   7.0765   8.2009   8.3583   8.6758   8.7731
     9.6434   9.7180

     occupation numbers 
     1.0000   1.0000   1.0000   1.0000   1.0000   1.0000   1.0000   1.0000
     1.0000   1.0000   1.0000   1.0000   1.0000   1.0000   1.0000   1.0000
     1.0000   1.0000   1.0000   1.0000   1.0000   1.0000   1.0000   1.0000
     1.0000   1.0000

          k =-0.1667 0.3849-0.0855 ( 18194 PWs)   bands (ev):

   -50.5919 -50.5919 -24.8535 -24.8535 -24.7225 -24.7224 -24.6742 -24.6742
    -2.4642  -2.3777  -2.0329  -1.9330   4.9427   5.1155   5.7536   5.8233
     6.3036   6.4034   6.9261   7.1441   7.9236   7.9894   8.7717   8.8563
     9.4390   9.4493

     occupation numbers 
     1.0000   1.0000   1.0000   1.0000   1.0000   1.0000   1.0000   1.0000
     1.0000   1.0000   1.0000   1.0000   1.0000   1.0000   1.0000   1.0000
     1.0000   1.0000   1.0000   1.0000   1.0000   1.0000   1.0000   1.0000
     1.0000   1.0000

          k =-0.1667 0.4811-0.0855 ( 18180 PWs)   bands (ev):

   -50.5856 -50.5856 -24.8997 -24.8997 -24.7101 -24.7101 -24.7022 -24.7022
    -2.0810  -2.0264  -1.8597  -1.8039   4.7729   4.9089   5.2556   5.2867
     6.1737   6.3790   6.9384   7.1399   7.7713   7.9132   8.3482   8.5384
     9.6566   9.7200

     occupation numbers 
     1.0000   1.0000   1.0000   1.0000   1.0000   1.0000   1.0000   1.0000
     1.0000   1.0000   1.0000   1.0000   1.0000   1.0000   1.0000   1.0000
     1.0000   1.0000   1.0000   1.0000   1.0000   1.0000   1.0000   1.0000
     1.0000   1.0000

          k =-0.2500 0.5292-0.0855 ( 18199 PWs)   bands (ev):

   -50.5820 -50.5820 -24.8817 -24.8817 -24.7642 -24.7642 -24.7029 -24.7029
    -1.8456  -1.8186  -1.7446  -1.7187   4.8713   4.9354   5.1291   5.2202
     6.2277   6.3703   6.7822   6.9039   7.2265   7.3945   8.0850   8.3138
     9.9215  10.0025

     occupation numbers 
     1.0000   1.0000   1.0000   1.0000   1.0000   1.0000   1.0000   1.0000
     1.0000   1.0000   1.0000   1.0000   1.0000   1.0000   1.0000   1.0000
     1.0000   1.0000   1.0000   1.0000   1.0000   1.0000   1.0000   1.0000
     1.0000   1.0000

     highest occupied level (ev):    10.8368

!    total energy              =    -369.77039361 Ry
     estimated scf accuracy    <       0.00000005 Ry

     The total energy is the sum of the following terms:
     one-electron contribution =    -172.03671192 Ry
     hartree contribution      =     108.13608512 Ry
     xc contribution           =     -66.67989179 Ry
     ewald contribution        =    -239.18987503 Ry

     convergence has been achieved in  14 iterations


     -----------------------------------------------
     Non-local corr. energy    =       0.55624737 Ry
     -----------------------------------------------


     Forces acting on atoms (cartesian axes, Ry/au):

     atom    1 type  2   force =     0.00000000    0.00000000    0.00012090
     atom    2 type  2   force =     0.00000000   -0.00000000   -0.00012090
     atom    3 type  1   force =     0.00000000    0.00000000    0.00001598
     atom    4 type  1   force =    -0.00000000   -0.00000000   -0.00001598
     atom    5 type  1   force =     0.00000000   -0.00000000   -0.00010107
     atom    6 type  1   force =     0.00000000    0.00000000    0.00010107
     The non-local contrib.  to forces
     atom    1 type  2   force =     0.00000000    0.00000000   -0.00012204
     atom    2 type  2   force =     0.00000000   -0.00000000    0.00012204
     atom    3 type  1   force =     0.00000000   -0.00000000   -0.24538322
     atom    4 type  1   force =     0.00000000    0.00000000    0.24538322
     atom    5 type  1   force =     0.00000000    0.00000000   -0.24544707
     atom    6 type  1   force =     0.00000000    0.00000000    0.24544707
     The ionic contribution  to forces
     atom    1 type  2   force =     0.00000912   -0.00000526    0.11344433
     atom    2 type  2   force =    -0.00000912    0.00000526   -0.11344433
     atom    3 type  1   force =    -0.00000464    0.00000268   14.11979524
     atom    4 type  1   force =     0.00000464   -0.00000268  -14.11979524
     atom    5 type  1   force =     0.00000464   -0.00000268   14.02412167
     atom    6 type  1   force =    -0.00000464    0.00000268  -14.02412167
     The local contribution  to forces
     atom    1 type  2   force =     0.00014606   -0.00001205   -0.11230396
     atom    2 type  2   force =    -0.00008346    0.00012047    0.11230396
     atom    3 type  1   force =    -0.00000376    0.00000542  -13.87968598
     atom    4 type  1   force =     0.00000657   -0.00000054   13.87968598
     atom    5 type  1   force =     0.00000657   -0.00000054  -13.78451420
     atom    6 type  1   force =    -0.00000376    0.00000542   13.78451420
     The core correction contribution to forces
     atom    1 type  2   force =    -0.00000316    0.00000026    0.00000506
     atom    2 type  2   force =     0.00000181   -0.00000261   -0.00000506
     atom    3 type  1   force =     0.00000050   -0.00000073    0.00537253
     atom    4 type  1   force =    -0.00000088    0.00000007   -0.00537253
     atom    5 type  1   force =    -0.00000088    0.00000007    0.00537540
     atom    6 type  1   force =     0.00000050   -0.00000073   -0.00537540
     The Hubbard contrib.    to forces
     atom    1 type  2   force =     0.00000000    0.00000000    0.00000000
     atom    2 type  2   force =     0.00000000    0.00000000    0.00000000
     atom    3 type  1   force =     0.00000000    0.00000000    0.00000000
     atom    4 type  1   force =     0.00000000    0.00000000    0.00000000
     atom    5 type  1   force =     0.00000000    0.00000000    0.00000000
     atom    6 type  1   force =     0.00000000    0.00000000    0.00000000
     The SCF correction term to forces
     atom    1 type  2   force =     0.00000000   -0.00000000   -0.00090249
     atom    2 type  2   force =    -0.00000000    0.00000000    0.00090249
     atom    3 type  1   force =    -0.00000000    0.00000000   -0.00008258
     atom    4 type  1   force =     0.00000000   -0.00000000    0.00008258
     atom    5 type  1   force =     0.00000000   -0.00000000    0.00036312
     atom    6 type  1   force =    -0.00000000    0.00000000   -0.00036312

     Total force =     0.000224     Total SCF correction =     0.001381
     SCF correction compared to forces is large: reduce conv_thr to get better values


     Computing stress (Cartesian axis) and pressure



     -----------------------------------------------
     Non-local corr. energy    =       0.55624737 Ry
     -----------------------------------------------

          total   stress  (Ry/bohr**3)                   (kbar)     P=        0.17
   0.00000029   0.00000000   0.00000000            0.04        0.00        0.00
   0.00000000   0.00000029   0.00000000            0.00        0.04        0.00
   0.00000000   0.00000000   0.00000288            0.00        0.00        0.42

     kinetic stress (kbar)  16151.97      0.00      0.00
                                0.00  16151.97      0.00
                                0.00      0.00  16240.55

     local   stress (kbar) -33812.98     -0.01      0.00
                               -0.01 -33812.99     -0.00
                                0.00     -0.00  18785.51

     nonloc. stress (kbar)  12780.53      0.00      0.00
                                0.00  12780.53     -0.00
                                0.00      0.00  12809.82

     hartree stress (kbar)  15199.53      0.00     -0.00
                                0.00  15199.53     -0.00
                               -0.00     -0.00  -8500.36

     exc-cor stress (kbar)   -291.39      0.00     -0.00
                                0.00   -291.39      0.00
                               -0.00      0.00   -287.75

     corecor stress (kbar)  -3591.90     -0.00     -0.00
                               -0.00  -3591.90      0.00
                               -0.00      0.00  -3595.93

     ewald   stress (kbar)  -6472.46      0.01     -0.00
                                0.01  -6472.44      0.00
                               -0.00      0.00 -35493.57

     hubbard stress (kbar)      0.00      0.00      0.00
                                0.00      0.00      0.00
                                0.00      0.00      0.00

     DFT-D   stress (kbar)      0.00      0.00      0.00
                                0.00      0.00      0.00
                                0.00      0.00      0.00

     XDM     stress (kbar)      0.00      0.00      0.00
                                0.00      0.00      0.00
                                0.00      0.00      0.00

     dft-nl  stress (kbar)     36.74     -0.00     -0.00
                               -0.00     36.74      0.00
                               -0.00      0.00     42.15

     TS-vdW  stress (kbar)      0.00      0.00      0.00
                                0.00      0.00      0.00
                                0.00      0.00      0.00

     MDB     stress (kbar)      0.00      0.00      0.00
                                0.00      0.00      0.00
                                0.00      0.00      0.00

     3D-RISM stress (kbar)      0.00      0.00      0.00
                                0.00      0.00      0.00
                                0.00      0.00      0.00


     Writing all to output data dir ./tmp/MoS2_bulk_pbe_nsoc.save/

     init_run     :     21.00s CPU     19.53s WALL (       2 calls)
     electrons    :    371.10s CPU    302.41s WALL (       2 calls)
     forces       :      7.13s CPU     31.31s WALL (       2 calls)
     stress       :     31.32s CPU     31.78s WALL (       2 calls)

     Called by init_run:
     wfcinit      :      9.41s CPU      7.85s WALL (       2 calls)
     wfcinit:atom :      0.16s CPU      0.18s WALL (     100 calls)
     wfcinit:wfcr :      8.63s CPU      7.04s WALL (     100 calls)
     potinit      :      9.34s CPU      9.40s WALL (       2 calls)
     hinit0       :      1.75s CPU      1.76s WALL (       2 calls)

     Called by electrons:
     c_bands      :    339.40s CPU    269.54s WALL (      28 calls)
     sum_band     :     26.19s CPU     26.55s WALL (      28 calls)
     v_of_rho     :     13.74s CPU     14.44s WALL (      30 calls)
     v_h          :      0.07s CPU      0.07s WALL (      30 calls)
     v_xc         :     14.53s CPU     15.34s WALL (      34 calls)
     mix_rho      :      0.26s CPU      0.39s WALL (      28 calls)
     vdW_kernel   :      8.18s CPU      8.20s WALL (       1 calls)

     Called by c_bands:
     init_us_2    :      7.40s CPU      7.52s WALL (    3100 calls)
     init_us_2:cp :      7.38s CPU      7.51s WALL (    3100 calls)
     cegterg      :    323.53s CPU    253.49s WALL (    1400 calls)

     Called by sum_band:
     sum_band:wei :      0.00s CPU      0.00s WALL (      28 calls)
     sum_band:loo :     26.08s CPU     26.42s WALL (      28 calls)
     sum_band:buf :      1.07s CPU      1.07s WALL (    1400 calls)
     sum_band:ini :      3.42s CPU      3.46s WALL (    1400 calls)

     Called by *egterg:
     cdiaghg      :      7.14s CPU      7.24s WALL (    7751 calls)
     cegterg:over :     27.62s CPU     16.80s WALL (    6351 calls)
     cegterg:upda :     17.14s CPU      8.91s WALL (    6351 calls)
     cegterg:last :     29.15s CPU     15.95s WALL (    4004 calls)
     h_psi        :    241.36s CPU    201.68s WALL (    7851 calls)
     g_psi        :      1.20s CPU      1.42s WALL (    6351 calls)

     Called by h_psi:
     h_psi:calbec :     49.10s CPU     27.14s WALL (    7851 calls)
     vloc_psi     :    144.98s CPU    148.66s WALL (    7851 calls)
     add_vuspsi   :     45.43s CPU     23.82s WALL (    7851 calls)

     General routines
     calbec       :     53.63s CPU     54.85s WALL (    8351 calls)
     fft          :      2.73s CPU      2.79s WALL (    2136 calls)
     ffts         :      0.03s CPU      0.03s WALL (      28 calls)
     fftw         :    145.26s CPU    148.43s WALL (  278320 calls)

     Parallel routines

     PWSCF        :   7m10.95s CPU   6m25.63s WALL


   This run was terminated on:  21: 3:58  17Apr2024            

=------------------------------------------------------------------------------=
   JOB DONE.
=------------------------------------------------------------------------------=
