
     Program BANDS v.7.2 starts on  3Apr2024 at 17:11:47 

     This program is part of the open-source Quantum ESPRESSO suite
     for quantum simulation of materials; please cite
         "P. Giannozzi et al., J. Phys.:Condens. Matter 21 395502 (2009);
         "P. Giannozzi et al., J. Phys.:Condens. Matter 29 465901 (2017);
         "P. Giannozzi et al., J. Chem. Phys. 152 154105 (2020);
          URL http://www.quantum-espresso.org", 
     in publications or presentations arising from this work. More details at
     http://www.quantum-espresso.org/quote

     Parallel version (MPI & OpenMP), running on       8 processor cores
     Number of MPI processes:                 8
     Threads/MPI process:                     1

     MPI processes distributed on     1 nodes
     R & G space division:  proc/nbgrp/npool/nimage =       8
     0 MiB available memory on the printing compute node when the environment starts


     Reading xml data from directory:

     ./tmp/graphene_PBE_vdW.save/

     IMPORTANT: XC functional enforced from input :
     Exchange-correlation= VDW-DF2-B86R
                           (   1   4  26   0   2   0   0)
     Any further DFT definition will be discarded
     Please, verify this is what you really want


     Parallelization info
     --------------------
     sticks:   dense  smooth     PW     G-vecs:    dense   smooth      PW
     Min          45      45     13                 4137     4137     699
     Max          46      46     14                 4158     4158     720
     Sum         361     361    109                33185    33185    5693

     Using Slab Decomposition



     %%%%%%%%%%%%%%%%%%%%%%%%%%%%%%%%%%%%%%%%%%%%%%%%%%%%%%%%%%%%%%%%%%%%%%%%
     %                                                                      %
     % You are using vdW-DF, which was implemented by the Thonhauser group. %
     % Please cite the following two papers that made this development      %
     % possible and the two reviews that describe the various versions:     %
     %                                                                      %
     %   T. Thonhauser et al., PRL 115, 136402 (2015).                      %
     %   T. Thonhauser et al., PRB 76, 125112 (2007).                       %
     %   K. Berland et al., Rep. Prog. Phys. 78, 066501 (2015).             %
     %   D.C. Langreth et al., J. Phys.: Condens. Matter 21, 084203 (2009). %
     %                                                                      %
     % If you are calculating stress with vdW-DF, please also cite:         %
     %                                                                      %
     %   R. Sabatini et al., J. Phys.: Condens. Matter 24, 424209 (2012).   %
     %                                                                      %
     %%%%%%%%%%%%%%%%%%%%%%%%%%%%%%%%%%%%%%%%%%%%%%%%%%%%%%%%%%%%%%%%%%%%%%%%

     %%%%%%%%%%%%%%%%%%%%%%%%%%%%%%%%%%%%%%%%%%%%%%%%%%%%%%%%%%%%%%%%%%%%%%%%
     %                                                                      %
     %  vdW-DF NEWS:                                                        %
     %                                                                      %
     %  * vdW-DF3 is now available. DOI: 10.1021/acs.jctc.0c00471           %
     %    use with input_dft = 'vdW-DF3-opt1' or 'vdW-DF3-opt2'             %
     %                                                                      %
     %  * Unscreened and range-separated hybrid vdW-DF-cx functionals       %
     %    DOI: 10.1063/1.4986522 and 10.1088/1361-648X/ac2ad2               %
     %    use with input_dft = 'vdW-DF-cx0'    and 'vdW-DF-ahcx'            %
     %  * Unscreened and range-separated hybrid vdW-DF2-b86r functionals    %
     %    DOI: 10.1063/1.4986522 and DOI: 10.1103/PhysRevX.12.041003        %
     %    use with input_dft = 'vdW-DF2-br0' and 'vdW-DF2-ahbr'             %
     %                                                                      %
     %%%%%%%%%%%%%%%%%%%%%%%%%%%%%%%%%%%%%%%%%%%%%%%%%%%%%%%%%%%%%%%%%%%%%%%%


     Reading collected, re-writing distributed wavefunctions
     high-symmetry point:  0.0000 0.0000 0.0000   x coordinate   0.0000
     high-symmetry point: -0.3333 0.5774 0.0000   x coordinate   0.6667
     high-symmetry point:  0.0000 0.5774 0.0000   x coordinate   1.0000
     high-symmetry point:  0.0000 0.0000 0.0000   x coordinate   1.5773

     Plottable bands (eV) written to file Bande_graphene_PBE_vdW.dat.gnu
     Bands written to file Bande_graphene_PBE_vdW.dat

 **************************************************************************

                    xk=(   0.00000,   0.00000,   0.00000  )

     point group D_6h(6/mmm)
     there are 12 classes
     the character table:

       E     2C6   2C3   C2    3C2'  3C2'' i     2S3   2S6   s_h   3s_d  3s_v 
A_1g   1.00  1.00  1.00  1.00  1.00  1.00  1.00  1.00  1.00  1.00  1.00  1.00
A_2g   1.00  1.00  1.00  1.00 -1.00 -1.00  1.00  1.00  1.00  1.00 -1.00 -1.00
B_1g   1.00 -1.00  1.00 -1.00  1.00 -1.00  1.00 -1.00  1.00 -1.00  1.00 -1.00
B_2g   1.00 -1.00  1.00 -1.00 -1.00  1.00  1.00 -1.00  1.00 -1.00 -1.00  1.00
E_1g   2.00  1.00 -1.00 -2.00  0.00  0.00  2.00  1.00 -1.00 -2.00  0.00  0.00
E_2g   2.00 -1.00 -1.00  2.00  0.00  0.00  2.00 -1.00 -1.00  2.00  0.00  0.00
A_1u   1.00  1.00  1.00  1.00  1.00  1.00 -1.00 -1.00 -1.00 -1.00 -1.00 -1.00
A_2u   1.00  1.00  1.00  1.00 -1.00 -1.00 -1.00 -1.00 -1.00 -1.00  1.00  1.00
B_1u   1.00 -1.00  1.00 -1.00  1.00 -1.00 -1.00  1.00 -1.00  1.00 -1.00  1.00
B_2u   1.00 -1.00  1.00 -1.00 -1.00  1.00 -1.00  1.00 -1.00  1.00  1.00 -1.00
E_1u   2.00  1.00 -1.00 -2.00  0.00  0.00 -2.00 -1.00  1.00  2.00  0.00  0.00
E_2u   2.00 -1.00 -1.00  2.00  0.00  0.00 -2.00  1.00  1.00 -2.00  0.00  0.00

     the symmetry operations in each class and the name of the first element:

     E        1
                                                                 
     2C6      5    6
                                                                 
     2C3      7    8
                                                                 
     C2       2
                                                                 
     3C2'     4   12   11
                                                                 
     3C2''    3    9   10
                                                                 
     i       13
                                                                 
     2S3     17   18
                                                                 
     2S6     19   20
                                                                 
     s_h     14
                                                                 
     3s_d    16   24   23
                                                                 
     3s_v    15   21   22
                                                                 

     Band symmetry, D_6h(6/mmm) point group:

     e(  1 -  1) =    -21.32603  eV     1   --> A_1g           
     e(  2 -  2) =     -9.44843  eV     1   --> A_2u           
     e(  3 -  4) =     -4.89758  eV     2   --> E_2g           
     e(  5 -  5) =      1.11913  eV     1   --> A_1g           
     e(  6 -  6) =      2.13058  eV     1   --> A_2u           
     e(  7 -  7) =      2.94070  eV     1   --> A_1g           
     e(  8 -  8) =      4.73391  eV     1   --> A_2u           
     e(  9 -  9) =      5.65722  eV     1   --> A_1g           
     e( 10 - 10) =      6.58038  eV     1   -->   ?

 **************************************************************************

 **************************************************************************

                    xk=(  -0.01587,   0.02749,   0.00000  )

     point group C_2v (mm2) 
     there are  4 classes
     the character table:

       E     C2    s_v   s_v' 
A_1    1.00  1.00  1.00  1.00
A_2    1.00  1.00 -1.00 -1.00
B_1    1.00 -1.00  1.00 -1.00
B_2    1.00 -1.00 -1.00  1.00

     the symmetry operations in each class and the name of the first element:

     E        1
                                                                 
     C2       2
                                                                 
     s_v      4
                                                                 
     s_v'     3
                                                                 

     Band symmetry, C_2v (mm2)  point group:

     e(  1 -  1) =    -21.30824  eV     1   --> A_1  D_1  S_1  
     e(  2 -  2) =     -9.42704  eV     1   --> B_1  D_3  S_3  
     e(  3 -  3) =     -4.97238  eV     1   --> B_2  D_4  S_4  
     e(  4 -  4) =     -4.93703  eV     1   --> A_1  D_1  S_1  
     e(  5 -  5) =      1.14331  eV     1   --> A_1  D_1  S_1  
     e(  6 -  6) =      2.15489  eV     1   --> B_1  D_3  S_3  
     e(  7 -  7) =      2.96540  eV     1   --> A_1  D_1  S_1  
     e(  8 -  8) =      4.75822  eV     1   --> B_1  D_3  S_3  
     e(  9 -  9) =      5.68108  eV     1   --> A_1  D_1  S_1  
     e( 10 - 10) =      6.65757  eV     1   -->   ?

 **************************************************************************

 **************************************************************************

                    xk=(  -0.03175,   0.05499,   0.00000  )

     Band symmetry, C_2v (mm2)  point group:

     e(  1 -  1) =    -21.25493  eV     1   --> A_1  D_1  S_1  
     e(  2 -  2) =     -9.36302  eV     1   --> B_1  D_3  S_3  
     e(  3 -  3) =     -5.18683  eV     1   --> B_2  D_4  S_4  
     e(  4 -  4) =     -5.05426  eV     1   --> A_1  D_1  S_1  
     e(  5 -  5) =      1.21583  eV     1   --> A_1  D_1  S_1  
     e(  6 -  6) =      2.22780  eV     1   --> B_1  D_3  S_3  
     e(  7 -  7) =      3.03952  eV     1   --> A_1  D_1  S_1  
     e(  8 -  8) =      4.83110  eV     1   --> B_1  D_3  S_3  
     e(  9 -  9) =      5.75178  eV     1   --> A_1  D_1  S_1  
     e( 10 - 10) =      6.62977  eV     1   -->   ?

 **************************************************************************

 **************************************************************************

                    xk=(  -0.04762,   0.08248,   0.00000  )

     Band symmetry, C_2v (mm2)  point group:

     e(  1 -  1) =    -21.16607  eV     1   --> A_1  D_1  S_1  
     e(  2 -  2) =     -9.25645  eV     1   --> B_1  D_3  S_3  
     e(  3 -  3) =     -5.52127  eV     1   --> B_2  D_4  S_4  
     e(  4 -  4) =     -5.24489  eV     1   --> A_1  D_1  S_1  
     e(  5 -  5) =      1.33673  eV     1   --> A_1  D_1  S_1  
     e(  6 -  6) =      2.34927  eV     1   --> B_1  D_3  S_3  
     e(  7 -  7) =      3.16307  eV     1   --> A_1  D_1  S_1  
     e(  8 -  8) =      4.95253  eV     1   --> B_1  D_3  S_3  
     e(  9 -  9) =      5.86999  eV     1   --> A_1  D_1  S_1  
     e( 10 - 10) =      6.69520  eV     1   --> A_1  D_1  S_1  

 **************************************************************************

 **************************************************************************

                    xk=(  -0.06349,   0.10997,   0.00000  )

     Band symmetry, C_2v (mm2)  point group:

     e(  1 -  1) =    -21.04181  eV     1   --> A_1  D_1  S_1  
     e(  2 -  2) =     -9.10769  eV     1   --> B_1  D_3  S_3  
     e(  3 -  3) =     -5.95032  eV     1   --> B_2  D_4  S_4  
     e(  4 -  4) =     -5.50287  eV     1   --> A_1  D_1  S_1  
     e(  5 -  5) =      1.50602  eV     1   --> A_1  D_1  S_1  
     e(  6 -  6) =      2.51918  eV     1   --> B_1  D_3  S_3  
     e(  7 -  7) =      3.33605  eV     1   --> A_1  D_1  S_1  
     e(  8 -  8) =      5.12265  eV     1   --> B_1  D_3  S_3  
     e(  9 -  9) =      6.03544  eV     1   --> A_1  D_1  S_1  
     e( 10 - 10) =      6.79216  eV     1   --> A_1  D_1  S_1  

 **************************************************************************

 **************************************************************************

                    xk=(  -0.07936,   0.13746,   0.00000  )

     Band symmetry, C_2v (mm2)  point group:

     e(  1 -  1) =    -20.88223  eV     1   --> A_1  D_1  S_1  
     e(  2 -  2) =     -8.91647  eV     1   --> B_1  D_3  S_3  
     e(  3 -  3) =     -6.44787  eV     1   --> B_2  D_4  S_4  
     e(  4 -  4) =     -5.82134  eV     1   --> A_1  D_1  S_1  
     e(  5 -  5) =      1.72369  eV     1   --> A_1  D_1  S_1  
     e(  6 -  6) =      2.73749  eV     1   --> B_1  D_3  S_3  
     e(  7 -  7) =      3.55848  eV     1   --> A_1  D_1  S_1  
     e(  8 -  8) =      5.34060  eV     1   --> B_1  D_3  S_3  
     e(  9 -  9) =      6.24774  eV     1   --> A_1  D_1  S_1  
     e( 10 - 10) =      6.92460  eV     1   --> A_1  D_1  S_1  

 **************************************************************************

 **************************************************************************

                    xk=(  -0.09524,   0.16496,   0.00000  )

     Band symmetry, C_2v (mm2)  point group:

     e(  1 -  1) =    -20.68753  eV     1   --> A_1  D_1  S_1  
     e(  2 -  2) =     -8.68431  eV     1   --> B_1  D_3  S_3  
     e(  3 -  3) =     -6.99218  eV     1   --> B_2  D_4  S_4  
     e(  4 -  4) =     -6.19151  eV     1   --> A_1  D_1  S_1  
     e(  5 -  5) =      1.98973  eV     1   --> A_1  D_1  S_1  
     e(  6 -  6) =      3.00387  eV     1   --> B_1  D_3  S_3  
     e(  7 -  7) =      3.83035  eV     1   --> A_1  D_1  S_1  
     e(  8 -  8) =      5.60680  eV     1   --> B_1  D_3  S_3  
     e(  9 -  9) =      6.50625  eV     1   --> A_1  D_1  S_1  
     e( 10 - 10) =      7.09524  eV     1   --> A_1  D_1  S_1  

 **************************************************************************

 **************************************************************************

                    xk=(  -0.11111,   0.19245,   0.00000  )

     Band symmetry, C_2v (mm2)  point group:

     e(  1 -  1) =    -20.45824  eV     1   --> A_1  D_1  S_1  
     e(  2 -  2) =     -8.41219  eV     1   --> B_1  D_3  S_3  
     e(  3 -  3) =     -7.56526  eV     1   --> B_2  D_4  S_4  
     e(  4 -  4) =     -6.60521  eV     1   --> A_1  D_1  S_1  
     e(  5 -  5) =      2.30403  eV     1   --> A_1  D_1  S_1  
     e(  6 -  6) =      3.31800  eV     1   --> B_1  D_3  S_3  
     e(  7 -  7) =      4.15166  eV     1   --> A_1  D_1  S_1  
     e(  8 -  8) =      5.92045  eV     1   --> B_1  D_3  S_3  
     e(  9 -  9) =      6.80981  eV     1   --> A_1  D_1  S_1  
     e( 10 - 10) =      6.95843  eV     1   --> A_2  D_2  S_2  

 **************************************************************************

 **************************************************************************

                    xk=(  -0.12698,   0.21994,   0.00000  )

     Band symmetry, C_2v (mm2)  point group:

     e(  1 -  1) =    -20.19433  eV     1   --> A_1  D_1  S_1  
     e(  2 -  2) =     -8.15181  eV     1   --> B_2  D_4  S_4  
     e(  3 -  3) =     -8.09987  eV     1   --> B_1  D_3  S_3  
     e(  4 -  4) =     -7.05178  eV     1   --> A_1  D_1  S_1  
     e(  5 -  5) =      2.66652  eV     1   --> A_1  D_1  S_1  
     e(  6 -  6) =      3.67961  eV     1   --> B_1  D_3  S_3  
     e(  7 -  7) =      4.52240  eV     1   --> A_1  D_1  S_1  
     e(  8 -  8) =      6.28138  eV     1   --> B_1  D_3  S_3  
     e(  9 -  9) =      6.29953  eV     1   --> A_2  D_2  S_2  
     e( 10 - 10) =      7.15559  eV     1   --> A_1  D_1  S_1  

 **************************************************************************

 **************************************************************************

                    xk=(  -0.14286,   0.24744,   0.00000  )

     Band symmetry, C_2v (mm2)  point group:

     e(  1 -  1) =    -19.89650  eV     1   --> A_1  D_1  S_1  
     e(  2 -  2) =     -8.74216  eV     1   --> B_2  D_4  S_4  
     e(  3 -  3) =     -7.74915  eV     1   --> B_1  D_3  S_3  
     e(  4 -  4) =     -7.52305  eV     1   --> A_1  D_1  S_1  
     e(  5 -  5) =      3.07701  eV     1   --> A_1  D_1  S_1  
     e(  6 -  6) =      4.08801  eV     1   --> B_1  D_3  S_3  
     e(  7 -  7) =      4.94252  eV     1   --> A_1  D_1  S_1  
     e(  8 -  8) =      5.61283  eV     1   --> A_2  D_2  S_2  
     e(  9 -  9) =      6.68856  eV     1   --> B_1  D_3  S_3  
     e( 10 - 10) =      7.53695  eV     1   --> A_1  D_1  S_1  

 **************************************************************************

 **************************************************************************

                    xk=(  -0.15873,   0.27493,   0.00000  )

     Band symmetry, C_2v (mm2)  point group:

     e(  1 -  1) =    -19.56524  eV     1   --> A_1  D_1  S_1  
     e(  2 -  2) =     -9.32780  eV     1   --> B_2  D_4  S_4  
     e(  3 -  3) =     -8.01092  eV     1   --> A_1  D_1  S_1  
     e(  4 -  4) =     -7.36217  eV     1   --> B_1  D_3  S_3  
     e(  5 -  5) =      3.53526  eV     1   --> A_1  D_1  S_1  
     e(  6 -  6) =      4.54221  eV     1   --> B_1  D_3  S_3  
     e(  7 -  7) =      4.91067  eV     1   --> A_2  D_2  S_2  
     e(  8 -  8) =      5.41198  eV     1   --> A_1  D_1  S_1  
     e(  9 -  9) =      7.14060  eV     1   --> B_1  D_3  S_3  
     e( 10 - 10) =      7.94042  eV     1   --> A_1  D_1  S_1  

 **************************************************************************

 **************************************************************************

                    xk=(  -0.17460,   0.30242,   0.00000  )

     Band symmetry, C_2v (mm2)  point group:

     e(  1 -  1) =    -19.20101  eV     1   --> A_1  D_1  S_1  
     e(  2 -  2) =     -9.90285  eV     1   --> B_2  D_4  S_4  
     e(  3 -  3) =     -8.50697  eV     1   --> A_1  D_1  S_1  
     e(  4 -  4) =     -6.94052  eV     1   --> B_1  D_3  S_3  
     e(  5 -  5) =      4.04099  eV     1   --> A_1  D_1  S_1  
     e(  6 -  6) =      4.20301  eV     1   --> A_2  D_2  S_2  
     e(  7 -  7) =      5.04082  eV     1   --> B_1  D_3  S_3  
     e(  8 -  8) =      5.93071  eV     1   --> A_1  D_1  S_1  
     e(  9 -  9) =      7.63531  eV     1   --> B_1  D_3  S_3  
     e( 10 - 10) =      8.35276  eV     1   --> A_1  D_1  S_1  

 **************************************************************************

 **************************************************************************

                    xk=(  -0.19047,   0.32992,   0.00000  )

     Band symmetry, C_2v (mm2)  point group:

     e(  1 -  1) =    -18.80492  eV     1   --> A_1  D_1  S_1  
     e(  2 -  2) =    -10.46284  eV     1   --> B_2  D_4  S_4  
     e(  3 -  3) =     -9.00462  eV     1   --> A_1  D_1  S_1  
     e(  4 -  4) =     -6.48608  eV     1   --> B_1  D_3  S_3  
     e(  5 -  5) =      3.49951  eV     1   --> A_2  D_2  S_2  
     e(  6 -  6) =      4.59371  eV     1   --> A_1  D_1  S_1  
     e(  7 -  7) =      5.58162  eV     1   --> B_1  D_3  S_3  
     e(  8 -  8) =      6.49858  eV     1   --> A_1  D_1  S_1  
     e(  9 -  9) =      8.16858  eV     1   --> B_1  D_3  S_3  
     e( 10 - 10) =      8.77129  eV     1   --> A_1  D_1  S_1  

 **************************************************************************

 **************************************************************************

                    xk=(  -0.20635,   0.35741,   0.00000  )

     Band symmetry, C_2v (mm2)  point group:

     e(  1 -  1) =    -18.37834  eV     1   --> A_1  D_1  S_1  
     e(  2 -  2) =    -11.00454  eV     1   --> B_2  D_4  S_4  
     e(  3 -  3) =     -9.49828  eV     1   --> A_1  D_1  S_1  
     e(  4 -  4) =     -6.00322  eV     1   --> B_1  D_3  S_3  
     e(  5 -  5) =      2.80588  eV     1   --> A_2  D_2  S_2  
     e(  6 -  6) =      5.19273  eV     1   --> A_1  D_1  S_1  
     e(  7 -  7) =      6.16032  eV     1   --> B_1  D_3  S_3  
     e(  8 -  8) =      7.11541  eV     1   --> A_1  D_1  S_1  
     e(  9 -  9) =      8.73187  eV     1   --> B_1  D_3  S_3  
     e( 10 - 10) =      9.20174  eV     1   --> A_1  D_1  S_1  

 **************************************************************************

 **************************************************************************

                    xk=(  -0.22222,   0.38490,   0.00000  )

     Band symmetry, C_2v (mm2)  point group:

     e(  1 -  1) =    -17.92203  eV     1   --> A_1  D_1  S_1  
     e(  2 -  2) =    -11.52380  eV     1   --> B_2  D_4  S_4  
     e(  3 -  3) =     -9.98086  eV     1   --> A_1  D_1  S_1  
     e(  4 -  4) =     -5.49414  eV     1   --> B_1  D_3  S_3  
     e(  5 -  5) =      2.13080  eV     1   --> A_2  D_2  S_2  
     e(  6 -  6) =      5.83720  eV     1   --> A_1  D_1  S_1  
     e(  7 -  7) =      6.76945  eV     1   --> B_1  D_3  S_3  
     e(  8 -  8) =      7.78097  eV     1   --> A_1  D_1  S_1  
     e(  9 -  9) =      9.30570  eV     1   --> B_1  D_3  S_3  
     e( 10 - 10) =      9.64561  eV     1   --> A_1  D_1  S_1  

 **************************************************************************

 **************************************************************************

                    xk=(  -0.23809,   0.41239,   0.00000  )

     Band symmetry, C_2v (mm2)  point group:

     e(  1 -  1) =    -17.43868  eV     1   --> A_1  D_1  S_1  
     e(  2 -  2) =    -12.02009  eV     1   --> B_2  D_4  S_4  
     e(  3 -  3) =    -10.44810  eV     1   --> A_1  D_1  S_1  
     e(  4 -  4) =     -4.96478  eV     1   --> B_1  D_3  S_3  
     e(  5 -  5) =      1.47616  eV     1   --> A_2  D_2  S_2  
     e(  6 -  6) =      6.52548  eV     1   --> A_1  D_1  S_1  
     e(  7 -  7) =      7.39240  eV     1   --> B_1  D_3  S_3  
     e(  8 -  8) =      8.49473  eV     1   --> A_1  D_1  S_1  
     e(  9 -  9) =      9.83918  eV     1   --> B_1  D_3  S_3  
     e( 10 - 10) =     10.09317  eV     1   --> A_1  D_1  S_1  

 **************************************************************************

 **************************************************************************

                    xk=(  -0.25397,   0.43989,   0.00000  )

     Band symmetry, C_2v (mm2)  point group:

     e(  1 -  1) =    -16.93124  eV     1   --> A_1  D_1  S_1  
     e(  2 -  2) =    -12.49137  eV     1   --> B_2  D_4  S_4  
     e(  3 -  3) =    -10.89378  eV     1   --> A_1  D_1  S_1  
     e(  4 -  4) =     -4.42119  eV     1   --> B_1  D_3  S_3  
     e(  5 -  5) =      0.84741  eV     1   --> A_2  D_2  S_2  
     e(  6 -  6) =      7.25505  eV     1   --> A_1  D_1  S_1  
     e(  7 -  7) =      7.99051  eV     1   --> B_1  D_3  S_3  
     e(  8 -  8) =      9.25572  eV     1   --> A_1  D_1  S_1  
     e(  9 -  9) =     10.22590  eV     1   -->   ?
     e( 10 - 10) =     10.52984  eV     1   -->   ?

 **************************************************************************

 **************************************************************************

                    xk=(  -0.26984,   0.46738,   0.00000  )

     Band symmetry, C_2v (mm2)  point group:

     e(  1 -  1) =    -16.40477  eV     1   --> A_1  D_1  S_1  
     e(  2 -  2) =    -12.93600  eV     1   --> B_2  D_4  S_4  
     e(  3 -  3) =    -11.31198  eV     1   --> A_1  D_1  S_1  
     e(  4 -  4) =     -3.87031  eV     1   --> B_1  D_3  S_3  
     e(  5 -  5) =      0.24797  eV     1   --> A_2  D_2  S_2  
     e(  6 -  6) =      8.02124  eV     1   --> A_1  D_1  S_1  
     e(  7 -  7) =      8.47370  eV     1   --> B_1  D_3  S_3  
     e(  8 -  8) =     10.06137  eV     1   --> A_1  D_1  S_1  
     e(  9 -  9) =     10.46303  eV     1   --> B_1  D_3  S_3  
     e( 10 - 10) =     10.92962  eV     1   --> A_1  D_1  S_1  

 **************************************************************************

 **************************************************************************

                    xk=(  -0.28571,   0.49487,   0.00000  )

     Band symmetry, C_2v (mm2)  point group:

     e(  1 -  1) =    -15.86706  eV     1   --> A_1  D_1  S_1  
     e(  2 -  2) =    -13.35339  eV     1   --> B_2  D_4  S_4  
     e(  3 -  3) =    -11.69337  eV     1   --> A_1  D_1  S_1  
     e(  4 -  4) =     -3.32206  eV     1   --> B_1  D_3  S_3  
     e(  5 -  5) =     -0.32060  eV     1   --> A_2  D_2  S_2  
     e(  6 -  6) =      8.71640  eV     1   --> B_1  D_3  S_3  
     e(  7 -  7) =      8.81499  eV     1   --> A_1  D_1  S_1  
     e(  8 -  8) =     10.82277  eV     1   -->   ?
     e(  9 -  9) =     10.89745  eV     1   --> A_1  D_1  S_1  
     e( 10 - 10) =     11.05910  eV     1   --> B_2  D_4  S_4  

 **************************************************************************

 **************************************************************************

                    xk=(  -0.30158,   0.52237,   0.00000  )

     Band symmetry, C_2v (mm2)  point group:

     e(  1 -  1) =    -15.33312  eV     1   --> A_1  D_1  S_1  
     e(  2 -  2) =    -13.74290  eV     1   --> B_2  D_4  S_4  
     e(  3 -  3) =    -12.02332  eV     1   --> A_1  D_1  S_1  
     e(  4 -  4) =     -2.78784  eV     1   --> B_1  D_3  S_3  
     e(  5 -  5) =     -0.85433  eV     1   --> A_2  D_2  S_2  
     e(  6 -  6) =      8.73769  eV     1   --> B_1  D_3  S_3  
     e(  7 -  7) =      9.61508  eV     1   --> A_1  D_1  S_1  
     e(  8 -  8) =     11.08179  eV     1   --> B_2  D_4  S_4  
     e(  9 -  9) =     11.38873  eV     1   --> A_1  D_1  S_1  
     e( 10 - 10) =     11.42312  eV     1   -->   ?

 **************************************************************************

 **************************************************************************

                    xk=(  -0.31746,   0.54986,   0.00000  )

     Band symmetry, C_2v (mm2)  point group:

     e(  1 -  1) =    -14.83455  eV     1   --> A_1  D_1  S_1  
     e(  2 -  2) =    -14.10390  eV     1   --> B_2  D_4  S_4  
     e(  3 -  3) =    -12.27156  eV     1   --> A_1  D_1  S_1  
     e(  4 -  4) =     -2.28081  eV     1   --> B_1  D_3  S_3  
     e(  5 -  5) =     -1.35346  eV     1   --> A_2  D_2  S_2  
     e(  6 -  6) =      8.68362  eV     1   --> B_1  D_3  S_3  
     e(  7 -  7) =     10.36176  eV     1   --> A_1  D_1  S_1  
     e(  8 -  8) =     11.01012  eV     1   --> B_2  D_4  S_4  
     e(  9 -  9) =     11.41903  eV     1   --> A_1  D_1  S_1  
     e( 10 - 10) =     12.15901  eV     1   --> B_1  D_3  S_3  

 **************************************************************************

 **************************************************************************

                    xk=(  -0.33333,   0.57735,   0.00000  )

     zone border point and non-symmorphic group 
     symmetry decomposition not available

 **************************************************************************

 **************************************************************************

                    xk=(  -0.30303,   0.57735,   0.00000  )

     zone border point and non-symmorphic group 
     symmetry decomposition not available

 **************************************************************************

 **************************************************************************

                    xk=(  -0.27272,   0.57735,   0.00000  )

     zone border point and non-symmorphic group 
     symmetry decomposition not available

 **************************************************************************

 **************************************************************************

                    xk=(  -0.24242,   0.57735,   0.00000  )

     zone border point and non-symmorphic group 
     symmetry decomposition not available

 **************************************************************************

 **************************************************************************

                    xk=(  -0.21212,   0.57735,   0.00000  )

     zone border point and non-symmorphic group 
     symmetry decomposition not available

 **************************************************************************

 **************************************************************************

                    xk=(  -0.18182,   0.57735,   0.00000  )

     zone border point and non-symmorphic group 
     symmetry decomposition not available

 **************************************************************************

 **************************************************************************

                    xk=(  -0.15151,   0.57735,   0.00000  )

     zone border point and non-symmorphic group 
     symmetry decomposition not available

 **************************************************************************

 **************************************************************************

                    xk=(  -0.12121,   0.57735,   0.00000  )

     zone border point and non-symmorphic group 
     symmetry decomposition not available

 **************************************************************************

 **************************************************************************

                    xk=(  -0.09091,   0.57735,   0.00000  )

     zone border point and non-symmorphic group 
     symmetry decomposition not available

 **************************************************************************

 **************************************************************************

                    xk=(  -0.06061,   0.57735,   0.00000  )

     zone border point and non-symmorphic group 
     symmetry decomposition not available

 **************************************************************************

 **************************************************************************

                    xk=(  -0.03030,   0.57735,   0.00000  )

     zone border point and non-symmorphic group 
     symmetry decomposition not available

 **************************************************************************

 **************************************************************************

                    xk=(   0.00000,   0.57735,   0.00000  )

     zone border point and non-symmorphic group 
     symmetry decomposition not available

 **************************************************************************

 **************************************************************************

                    xk=(   0.00000,   0.54528,   0.00000  )

     point group C_2v (mm2) 
     there are  4 classes
     the character table:

       E     C2    s_v   s_v' 
A_1    1.00  1.00  1.00  1.00
A_2    1.00  1.00 -1.00 -1.00
B_1    1.00 -1.00  1.00 -1.00
B_2    1.00 -1.00 -1.00  1.00

     the symmetry operations in each class and the name of the first element:

     E        1
                                                                 
     C2       2
                                                                 
     s_v      3
                                                                 
     s_v'     4
                                                                 

     Band symmetry, C_2v (mm2)  point group:

     e(  1 -  1) =    -16.37640  eV     1   --> A_1  D_1  S_1  
     e(  2 -  2) =    -14.76571  eV     1   --> A_1  D_1  S_1  
     e(  3 -  3) =     -8.25758  eV     1   --> B_1  D_3  S_3  
     e(  4 -  4) =     -4.29503  eV     1   --> B_2  D_4  S_4  
     e(  5 -  5) =      0.00151  eV     1   --> B_2  D_4  S_4  
     e(  6 -  6) =      5.63315  eV     1   --> A_1  D_1  S_1  
     e(  7 -  7) =      8.19355  eV     1   --> A_1  D_1  S_1  
     e(  8 -  8) =      9.19996  eV     1   --> B_2  D_4  S_4  
     e(  9 -  9) =      9.89986  eV     1   --> A_1  D_1  S_1  
     e( 10 - 10) =     10.22554  eV     1   --> A_1  D_1  S_1  

 **************************************************************************

 **************************************************************************

                    xk=(   0.00000,   0.51320,   0.00000  )

     Band symmetry, C_2v (mm2)  point group:

     e(  1 -  1) =    -16.85819  eV     1   --> A_1  D_1  S_1  
     e(  2 -  2) =    -14.20291  eV     1   --> A_1  D_1  S_1  
     e(  3 -  3) =     -8.20318  eV     1   --> B_1  D_3  S_3  
     e(  4 -  4) =     -4.60404  eV     1   --> B_2  D_4  S_4  
     e(  5 -  5) =      0.39459  eV     1   --> B_2  D_4  S_4  
     e(  6 -  6) =      5.66045  eV     1   --> A_1  D_1  S_1  
     e(  7 -  7) =      7.40301  eV     1   --> A_1  D_1  S_1  
     e(  8 -  8) =      8.42063  eV     1   --> B_2  D_4  S_4  
     e(  9 -  9) =      9.39506  eV     1   --> A_1  D_1  S_1  
     e( 10 - 10) =     10.79531  eV     1   -->   ?

 **************************************************************************

 **************************************************************************

                    xk=(   0.00000,   0.48113,   0.00000  )

     Band symmetry, C_2v (mm2)  point group:

     e(  1 -  1) =    -17.36229  eV     1   --> A_1  D_1  S_1  
     e(  2 -  2) =    -13.56451  eV     1   --> A_1  D_1  S_1  
     e(  3 -  3) =     -8.11309  eV     1   --> B_1  D_3  S_3  
     e(  4 -  4) =     -5.02413  eV     1   --> B_2  D_4  S_4  
     e(  5 -  5) =      0.95385  eV     1   --> B_2  D_4  S_4  
     e(  6 -  6) =      5.70244  eV     1   --> A_1  D_1  S_1  
     e(  7 -  7) =      6.65807  eV     1   --> A_1  D_1  S_1  
     e(  8 -  8) =      7.67759  eV     1   --> B_2  D_4  S_4  
     e(  9 -  9) =      8.61601  eV     1   --> A_1  D_1  S_1  
     e( 10 - 10) =     10.24201  eV     1   --> B_2  D_4  S_4  

 **************************************************************************

 **************************************************************************

                    xk=(   0.00000,   0.44905,   0.00000  )

     Band symmetry, C_2v (mm2)  point group:

     e(  1 -  1) =    -17.85192  eV     1   --> A_1  D_1  S_1  
     e(  2 -  2) =    -12.88900  eV     1   --> A_1  D_1  S_1  
     e(  3 -  3) =     -7.98804  eV     1   --> B_1  D_3  S_3  
     e(  4 -  4) =     -5.49339  eV     1   --> B_2  D_4  S_4  
     e(  5 -  5) =      1.61372  eV     1   --> B_2  D_4  S_4  
     e(  6 -  6) =      5.72549  eV     1   --> A_1  D_1  S_1  
     e(  7 -  7) =      5.99357  eV     1   --> A_1  D_1  S_1  
     e(  8 -  8) =      6.97684  eV     1   --> B_2  D_4  S_4  
     e(  9 -  9) =      7.88661  eV     1   --> A_1  D_1  S_1  
     e( 10 - 10) =      9.55150  eV     1   --> B_2  D_4  S_4  

 **************************************************************************

 **************************************************************************

                    xk=(   0.00000,   0.41698,   0.00000  )

     Band symmetry, C_2v (mm2)  point group:

     e(  1 -  1) =    -18.31666  eV     1   --> A_1  D_1  S_1  
     e(  2 -  2) =    -12.18897  eV     1   --> A_1  D_1  S_1  
     e(  3 -  3) =     -7.82958  eV     1   --> B_1  D_3  S_3  
     e(  4 -  4) =     -5.97511  eV     1   --> B_2  D_4  S_4  
     e(  5 -  5) =      2.33326  eV     1   --> B_2  D_4  S_4  
     e(  6 -  6) =      5.26162  eV     1   --> A_1  D_1  S_1  
     e(  7 -  7) =      5.87739  eV     1   --> A_1  D_1  S_1  
     e(  8 -  8) =      6.32157  eV     1   --> B_2  D_4  S_4  
     e(  9 -  9) =      7.20759  eV     1   --> A_1  D_1  S_1  
     e( 10 - 10) =      8.89988  eV     1   --> B_2  D_4  S_4  

 **************************************************************************

 **************************************************************************

                    xk=(   0.00000,   0.38490,   0.00000  )

     Band symmetry, C_2v (mm2)  point group:

     e(  1 -  1) =    -18.75208  eV     1   --> A_1  D_1  S_1  
     e(  2 -  2) =    -11.47140  eV     1   --> A_1  D_1  S_1  
     e(  3 -  3) =     -7.63855  eV     1   --> B_1  D_3  S_3  
     e(  4 -  4) =     -6.44780  eV     1   --> B_2  D_4  S_4  
     e(  5 -  5) =      3.08437  eV     1   --> B_2  D_4  S_4  
     e(  6 -  6) =      4.65969  eV     1   --> A_1  D_1  S_1  
     e(  7 -  7) =      5.71520  eV     1   --> B_2  D_4  S_4  
     e(  8 -  8) =      5.95799  eV     1   --> A_1  D_1  S_1  
     e(  9 -  9) =      6.58102  eV     1   --> A_1  D_1  S_1  
     e( 10 - 10) =      8.29213  eV     1   --> B_2  D_4  S_4  

 **************************************************************************

 **************************************************************************

                    xk=(   0.00000,   0.35283,   0.00000  )

     Band symmetry, C_2v (mm2)  point group:

     e(  1 -  1) =    -19.15658  eV     1   --> A_1  D_1  S_1  
     e(  2 -  2) =    -10.74215  eV     1   --> A_1  D_1  S_1  
     e(  3 -  3) =     -7.41953  eV     1   --> B_1  D_3  S_3  
     e(  4 -  4) =     -6.90050  eV     1   --> B_2  D_4  S_4  
     e(  5 -  5) =      3.84033  eV     1   --> B_2  D_4  S_4  
     e(  6 -  6) =      4.09815  eV     1   --> A_1  D_1  S_1  
     e(  7 -  7) =      5.16671  eV     1   --> B_2  D_4  S_4  
     e(  8 -  8) =      5.95771  eV     1   --> A_1  D_1  S_1  
     e(  9 -  9) =      6.10285  eV     1   --> A_1  D_1  S_1  
     e( 10 - 10) =      7.73019  eV     1   --> B_2  D_4  S_4  

 **************************************************************************

 **************************************************************************

                    xk=(   0.00000,   0.32075,   0.00000  )

     Band symmetry, C_2v (mm2)  point group:

     e(  1 -  1) =    -19.52847  eV     1   --> A_1  D_1  S_1  
     e(  2 -  2) =    -10.00719  eV     1   --> A_1  D_1  S_1  
     e(  3 -  3) =     -7.32525  eV     1   --> B_2  D_4  S_4  
     e(  4 -  4) =     -7.17387  eV     1   --> B_1  D_3  S_3  
     e(  5 -  5) =      3.58324  eV     1   --> A_1  D_1  S_1  
     e(  6 -  6) =      4.42334  eV     1   --> B_2  D_4  S_4  
     e(  7 -  7) =      4.84014  eV     1   --> B_2  D_4  S_4  
     e(  8 -  8) =      5.45942  eV     1   --> A_1  D_1  S_1  
     e(  9 -  9) =      6.18096  eV     1   --> A_1  D_1  S_1  
     e( 10 - 10) =      7.21605  eV     1   --> B_2  D_4  S_4  

 **************************************************************************

 **************************************************************************

                    xk=(   0.00000,   0.28868,   0.00000  )

     Band symmetry, C_2v (mm2)  point group:

     e(  1 -  1) =    -19.86641  eV     1   --> A_1  D_1  S_1  
     e(  2 -  2) =     -9.27396  eV     1   --> A_1  D_1  S_1  
     e(  3 -  3) =     -7.71712  eV     1   --> B_2  D_4  S_4  
     e(  4 -  4) =     -6.90527  eV     1   --> B_1  D_3  S_3  
     e(  5 -  5) =      3.11632  eV     1   --> A_1  D_1  S_1  
     e(  6 -  6) =      4.11310  eV     1   --> B_2  D_4  S_4  
     e(  7 -  7) =      4.98264  eV     1   --> A_1  D_1  S_1  
     e(  8 -  8) =      5.44109  eV     1   --> B_2  D_4  S_4  
     e(  9 -  9) =      6.28905  eV     1   --> A_1  D_1  S_1  
     e( 10 - 10) =      6.75252  eV     1   --> B_2  D_4  S_4  

 **************************************************************************

 **************************************************************************

                    xk=(   0.00000,   0.25660,   0.00000  )

     Band symmetry, C_2v (mm2)  point group:

     e(  1 -  1) =    -20.17065  eV     1   --> A_1  D_1  S_1  
     e(  2 -  2) =     -8.55191  eV     1   --> A_1  D_1  S_1  
     e(  3 -  3) =     -8.07308  eV     1   --> B_2  D_4  S_4  
     e(  4 -  4) =     -6.62032  eV     1   --> B_1  D_3  S_3  
     e(  5 -  5) =      2.69784  eV     1   --> A_1  D_1  S_1  
     e(  6 -  6) =      3.70797  eV     1   --> B_2  D_4  S_4  
     e(  7 -  7) =      4.55460  eV     1   --> A_1  D_1  S_1  
     e(  8 -  8) =      6.11426  eV     1   --> B_2  D_4  S_4  
     e(  9 -  9) =      6.38222  eV     1   --> B_2  D_4  S_4  
     e( 10 - 10) =      6.39071  eV     1   --> A_1  D_1  S_1  

 **************************************************************************

 **************************************************************************

                    xk=(   0.00000,   0.22453,   0.00000  )

     Band symmetry, C_2v (mm2)  point group:

     e(  1 -  1) =    -20.44011  eV     1   --> A_1  D_1  S_1  
     e(  2 -  2) =     -8.39074  eV     1   --> B_2  D_4  S_4  
     e(  3 -  3) =     -7.84978  eV     1   --> A_1  D_1  S_1  
     e(  4 -  4) =     -6.32448  eV     1   --> B_1  D_3  S_3  
     e(  5 -  5) =      2.32819  eV     1   --> A_1  D_1  S_1  
     e(  6 -  6) =      3.34161  eV     1   --> B_2  D_4  S_4  
     e(  7 -  7) =      4.17652  eV     1   --> A_1  D_1  S_1  
     e(  8 -  8) =      5.93909  eV     1   --> B_2  D_4  S_4  
     e(  9 -  9) =      6.46829  eV     1   --> A_1  D_1  S_1  
     e( 10 - 10) =      6.88558  eV     1   -->   ?

 **************************************************************************

 **************************************************************************

                    xk=(   0.00000,   0.19245,   0.00000  )

     Band symmetry, C_2v (mm2)  point group:

     e(  1 -  1) =    -20.67427  eV     1   --> A_1  D_1  S_1  
     e(  2 -  2) =     -8.66849  eV     1   --> B_2  D_4  S_4  
     e(  3 -  3) =     -7.18130  eV     1   --> A_1  D_1  S_1  
     e(  4 -  4) =     -6.02668  eV     1   --> B_1  D_3  S_3  
     e(  5 -  5) =      2.00759  eV     1   --> A_1  D_1  S_1  
     e(  6 -  6) =      3.02172  eV     1   --> B_2  D_4  S_4  
     e(  7 -  7) =      3.84872  eV     1   --> A_1  D_1  S_1  
     e(  8 -  8) =      5.62376  eV     1   --> B_2  D_4  S_4  
     e(  9 -  9) =      6.44714  eV     1   -->   ?
     e( 10 - 10) =      6.69310  eV     1   -->   ?

 **************************************************************************

 **************************************************************************

                    xk=(   0.00000,   0.16038,   0.00000  )

     Band symmetry, C_2v (mm2)  point group:

     e(  1 -  1) =    -20.87293  eV     1   --> A_1  D_1  S_1  
     e(  2 -  2) =     -8.90541  eV     1   --> B_2  D_4  S_4  
     e(  3 -  3) =     -6.56236  eV     1   --> A_1  D_1  S_1  
     e(  4 -  4) =     -5.73712  eV     1   --> B_1  D_3  S_3  
     e(  5 -  5) =      1.73618  eV     1   --> A_1  D_1  S_1  
     e(  6 -  6) =      2.75004  eV     1   --> B_2  D_4  S_4  
     e(  7 -  7) =      3.57128  eV     1   --> A_1  D_1  S_1  
     e(  8 -  8) =      5.35295  eV     1   --> B_2  D_4  S_4  
     e(  9 -  9) =      6.24804  eV     1   --> A_1  D_1  S_1  
     e( 10 - 10) =      6.66845  eV     1   --> A_1  D_1  S_1  

 **************************************************************************

 **************************************************************************

                    xk=(   0.00000,   0.12830,   0.00000  )

     Band symmetry, C_2v (mm2)  point group:

     e(  1 -  1) =    -21.03588  eV     1   --> A_1  D_1  S_1  
     e(  2 -  2) =     -9.10035  eV     1   --> B_2  D_4  S_4  
     e(  3 -  3) =     -6.01092  eV     1   --> A_1  D_1  S_1  
     e(  4 -  4) =     -5.46917  eV     1   --> B_1  D_3  S_3  
     e(  5 -  5) =      1.51404  eV     1   --> A_1  D_1  S_1  
     e(  6 -  6) =      2.52728  eV     1   --> B_2  D_4  S_4  
     e(  7 -  7) =      3.34426  eV     1   --> A_1  D_1  S_1  
     e(  8 -  8) =      5.13046  eV     1   --> B_2  D_4  S_4  
     e(  9 -  9) =      6.04101  eV     1   --> A_1  D_1  S_1  
     e( 10 - 10) =      6.66970  eV     1   --> A_1  D_1  S_1  

 **************************************************************************

 **************************************************************************

                    xk=(   0.00000,   0.09623,   0.00000  )

     Band symmetry, C_2v (mm2)  point group:

     e(  1 -  1) =    -21.16271  eV     1   --> A_1  D_1  S_1  
     e(  2 -  2) =     -9.25233  eV     1   --> B_2  D_4  S_4  
     e(  3 -  3) =     -5.54817  eV     1   --> A_1  D_1  S_1  
     e(  4 -  4) =     -5.23584  eV     1   --> B_1  D_3  S_3  
     e(  5 -  5) =      1.34126  eV     1   --> A_1  D_1  S_1  
     e(  6 -  6) =      2.35383  eV     1   --> B_2  D_4  S_4  
     e(  7 -  7) =      3.16771  eV     1   --> A_1  D_1  S_1  
     e(  8 -  8) =      4.95710  eV     1   --> B_2  D_4  S_4  
     e(  9 -  9) =      5.87409  eV     1   --> A_1  D_1  S_1  
     e( 10 - 10) =      6.65218  eV     1   --> A_1  D_1  S_1  

 **************************************************************************

 **************************************************************************

                    xk=(   0.00000,   0.06415,   0.00000  )

     Band symmetry, C_2v (mm2)  point group:

     e(  1 -  1) =    -21.25347  eV     1   --> A_1  D_1  S_1  
     e(  2 -  2) =     -9.36136  eV     1   --> B_2  D_4  S_4  
     e(  3 -  3) =     -5.19662  eV     1   --> A_1  D_1  S_1  
     e(  4 -  4) =     -5.05413  eV     1   --> B_1  D_3  S_3  
     e(  5 -  5) =      1.21784  eV     1   --> A_1  D_1  S_1  
     e(  6 -  6) =      2.22981  eV     1   --> B_2  D_4  S_4  
     e(  7 -  7) =      3.04158  eV     1   --> A_1  D_1  S_1  
     e(  8 -  8) =      4.83312  eV     1   --> B_2  D_4  S_4  
     e(  9 -  9) =      5.75374  eV     1   --> A_1  D_1  S_1  
     e( 10 - 10) =      6.62054  eV     1   --> A_1  D_1  S_1  

 **************************************************************************

 **************************************************************************

                    xk=(   0.00000,   0.03208,   0.00000  )

     Band symmetry, C_2v (mm2)  point group:

     e(  1 -  1) =    -21.30785  eV     1   --> A_1  D_1  S_1  
     e(  2 -  2) =     -9.42658  eV     1   --> B_2  D_4  S_4  
     e(  3 -  3) =     -4.97350  eV     1   --> A_1  D_1  S_1  
     e(  4 -  4) =     -4.93742  eV     1   --> B_1  D_3  S_3  
     e(  5 -  5) =      1.14381  eV     1   --> A_1  D_1  S_1  
     e(  6 -  6) =      2.15540  eV     1   --> B_2  D_4  S_4  
     e(  7 -  7) =      2.96594  eV     1   --> A_1  D_1  S_1  
     e(  8 -  8) =      4.75873  eV     1   --> B_2  D_4  S_4  
     e(  9 -  9) =      5.68136  eV     1   --> A_1  D_1  S_1  
     e( 10 - 10) =      6.59211  eV     1   --> A_1  D_1  S_1  

 **************************************************************************

 **************************************************************************

                    xk=(   0.00000,   0.00000,   0.00000  )

     point group D_6h(6/mmm)
     there are 12 classes
     the character table:

       E     2C6   2C3   C2    3C2'  3C2'' i     2S3   2S6   s_h   3s_d  3s_v 
A_1g   1.00  1.00  1.00  1.00  1.00  1.00  1.00  1.00  1.00  1.00  1.00  1.00
A_2g   1.00  1.00  1.00  1.00 -1.00 -1.00  1.00  1.00  1.00  1.00 -1.00 -1.00
B_1g   1.00 -1.00  1.00 -1.00  1.00 -1.00  1.00 -1.00  1.00 -1.00  1.00 -1.00
B_2g   1.00 -1.00  1.00 -1.00 -1.00  1.00  1.00 -1.00  1.00 -1.00 -1.00  1.00
E_1g   2.00  1.00 -1.00 -2.00  0.00  0.00  2.00  1.00 -1.00 -2.00  0.00  0.00
E_2g   2.00 -1.00 -1.00  2.00  0.00  0.00  2.00 -1.00 -1.00  2.00  0.00  0.00
A_1u   1.00  1.00  1.00  1.00  1.00  1.00 -1.00 -1.00 -1.00 -1.00 -1.00 -1.00
A_2u   1.00  1.00  1.00  1.00 -1.00 -1.00 -1.00 -1.00 -1.00 -1.00  1.00  1.00
B_1u   1.00 -1.00  1.00 -1.00  1.00 -1.00 -1.00  1.00 -1.00  1.00 -1.00  1.00
B_2u   1.00 -1.00  1.00 -1.00 -1.00  1.00 -1.00  1.00 -1.00  1.00  1.00 -1.00
E_1u   2.00  1.00 -1.00 -2.00  0.00  0.00 -2.00 -1.00  1.00  2.00  0.00  0.00
E_2u   2.00 -1.00 -1.00  2.00  0.00  0.00 -2.00  1.00  1.00 -2.00  0.00  0.00

     the symmetry operations in each class and the name of the first element:

     E        1
                                                                 
     2C6      5    6
                                                                 
     2C3      7    8
                                                                 
     C2       2
                                                                 
     3C2'     4   12   11
                                                                 
     3C2''    3    9   10
                                                                 
     i       13
                                                                 
     2S3     17   18
                                                                 
     2S6     19   20
                                                                 
     s_h     14
                                                                 
     3s_d    16   24   23
                                                                 
     3s_v    15   21   22
                                                                 

     Band symmetry, D_6h(6/mmm) point group:

     e(  1 -  1) =    -21.32603  eV     1   --> A_1g           
     e(  2 -  2) =     -9.44843  eV     1   --> A_2u           
     e(  3 -  4) =     -4.89757  eV     2   --> E_2g           
     e(  5 -  5) =      1.11913  eV     1   --> A_1g           
     e(  6 -  6) =      2.13058  eV     1   --> A_2u           
     e(  7 -  7) =      2.94074  eV     1   --> A_1g           
     e(  8 -  8) =      4.73391  eV     1   --> A_2u           
     e(  9 -  9) =      5.65723  eV     1   --> A_1g           
     e( 10 - 10) =      6.58038  eV     1   -->   ?

 **************************************************************************

     BANDS        :     11.32s CPU     11.47s WALL


   This run was terminated on:  17:11:59   3Apr2024            

=------------------------------------------------------------------------------=
   JOB DONE.
=------------------------------------------------------------------------------=
