
     Program PWSCF v.7.0 starts on 14Apr2025 at  5:53:44 

     This program is part of the open-source Quantum ESPRESSO suite
     for quantum simulation of materials; please cite
         "P. Giannozzi et al., J. Phys.:Condens. Matter 21 395502 (2009);
         "P. Giannozzi et al., J. Phys.:Condens. Matter 29 465901 (2017);
         "P. Giannozzi et al., J. Chem. Phys. 152 154105 (2020);
          URL http://www.quantum-espresso.org", 
     in publications or presentations arising from this work. More details at
     http://www.quantum-espresso.org/quote

     Parallel version (MPI & OpenMP), running on       8 processor cores
     Number of MPI processes:                 8
     Threads/MPI process:                     1

     MPI processes distributed on     1 nodes
     R & G space division:  proc/nbgrp/npool/nimage =       8
     0 MiB available memory on the printing compute node when the environment starts

     Waiting for input...
     Reading input from standard input
Warning: card &IONS ignored
Warning: card / ignored
Warning: card &CELL ignored
Warning: card CELL_DOFREE = 'Z' ignored
Warning: card / ignored

     Current dimensions of program PWSCF are:
     Max number of different atomic species (ntypx) = 10
     Max number of k-points (npk) =  40000
     Max angular momentum in pseudopotentials (lmaxx) =  4

     Atomic positions and unit cell read from directory:
     ./tmp_16/BN2L_AA1_PBE_vdW.save/
     Atomic positions from file used, from input discarded


     Subspace diagonalization in iterative solution of the eigenvalue problem:
     one sub-group per band group will be used
     scalapack distributed-memory algorithm (size of sub-group:  2*  2 procs)


     Parallelization info
     --------------------
     sticks:   dense  smooth     PW     G-vecs:    dense   smooth      PW
     Min          45      45     15                 5791     5791    1151
     Max          46      46     16                 5824     5824    1190
     Sum         367     367    121                46525    46525    9289

     Using Slab Decomposition



     bravais-lattice index     =            4
     lattice parameter (alat)  =       4.7489  a.u.
     unit-cell volume          =     741.9928 (a.u.)^3
     number of atoms/cell      =            4
     number of atomic types    =            2
     number of electrons       =        16.00
     number of Kohn-Sham states=           20
     kinetic-energy cutoff     =      60.0000  Ry
     charge density cutoff     =     240.0000  Ry
     Exchange-correlation= PBE
                           (   1   4   3   4   0   0   0)

     celldm(1)=   4.748900  celldm(2)=   0.000000  celldm(3)=   8.000000
     celldm(4)=   0.000000  celldm(5)=   0.000000  celldm(6)=   0.000000

     crystal axes: (cart. coord. in units of alat)
               a(1) = (   1.000000   0.000000   0.000000 )  
               a(2) = (  -0.500000   0.866025   0.000000 )  
               a(3) = (   0.000000   0.000000   8.000000 )  

     reciprocal axes: (cart. coord. in units 2 pi/alat)
               b(1) = (  1.000000  0.577350 -0.000000 )  
               b(2) = (  0.000000  1.154701  0.000000 )  
               b(3) = (  0.000000 -0.000000  0.125000 )  


     PseudoPot. # 1 for B  read from file:
     ../../../../../Pseudo/PBE/B.upf
     MD5 check sum: 72f82fc31bc892420d0cab7e25c88ab8
     Pseudo is Norm-conserving + core correction, Zval =  3.0
     Generated using ONCVPSP code by D. R. Hamann
     Using radial grid of 1534 points,  4 beta functions with: 
                l(1) =   0
                l(2) =   0
                l(3) =   1
                l(4) =   1

     PseudoPot. # 2 for N  read from file:
     ../../../../../Pseudo/PBE/N.upf
     MD5 check sum: d34365f73bb0e2ee98afc20ec3e87676
     Pseudo is Norm-conserving + core correction, Zval =  5.0
     Generated using ONCVPSP code by D. R. Hamann
     Using radial grid of 1058 points,  4 beta functions with: 
                l(1) =   0
                l(2) =   0
                l(3) =   1
                l(4) =   1

     atomic species   valence    mass     pseudopotential
        B              3.00    10.00000     B ( 1.00)
        N              5.00    14.01100     N ( 1.00)

     No symmetry found


                                    s                        frac. trans.

      isym =  1     identity                                     

 cryst.   s( 1) = (     1          0          0      )
                  (     0          1          0      )
                  (     0          0          1      )

 cart.    s( 1) = (  1.0000000  0.0000000  0.0000000 )
                  (  0.0000000  1.0000000  0.0000000 )
                  (  0.0000000  0.0000000  1.0000000 )


     point group C_1 (1)    
     there are  1 classes
     the character table:

       E    
A      1.00

     the symmetry operations in each class and the name of the first element:

     E        1
          identity                                               

   Cartesian axes

     site n.     atom                  positions (alat units)
         1           B   tau(   1) = (   0.0000000   0.0000000   0.0000000  )
         2           N   tau(   2) = (   0.5000005   0.2886748   0.0000000  )
         3           N   tau(   3) = (   0.0000000   0.0000000   1.3119520  )
         4           B   tau(   4) = (   0.5000005   0.2886748   1.3119520  )

   Crystallographic axes

     site n.     atom                  positions (cryst. coord.)
         1           B   tau(   1) = (  0.0000000  0.0000000  0.0000000  )
         2           N   tau(   2) = (  0.6666670  0.3333330  0.0000000  )
         3           N   tau(   3) = (  0.0000000  0.0000000  0.1639940  )
         4           B   tau(   4) = (  0.6666670  0.3333330  0.1639940  )

     number of k points=   256
                       cart. coord. in units 2pi/alat
        k(    1) = (   0.0000000   0.0000000   0.0000000), wk =   0.0078125
        k(    2) = (   0.0000000   0.0721688   0.0000000), wk =   0.0078125
        k(    3) = (   0.0000000   0.1443376   0.0000000), wk =   0.0078125
        k(    4) = (   0.0000000   0.2165064   0.0000000), wk =   0.0078125
        k(    5) = (   0.0000000   0.2886751   0.0000000), wk =   0.0078125
        k(    6) = (   0.0000000   0.3608439   0.0000000), wk =   0.0078125
        k(    7) = (   0.0000000   0.4330127   0.0000000), wk =   0.0078125
        k(    8) = (   0.0000000   0.5051815   0.0000000), wk =   0.0078125
        k(    9) = (   0.0000000  -0.5773503   0.0000000), wk =   0.0078125
        k(   10) = (   0.0000000  -0.5051815   0.0000000), wk =   0.0078125
        k(   11) = (   0.0000000  -0.4330127   0.0000000), wk =   0.0078125
        k(   12) = (   0.0000000  -0.3608439   0.0000000), wk =   0.0078125
        k(   13) = (   0.0000000  -0.2886751   0.0000000), wk =   0.0078125
        k(   14) = (   0.0000000  -0.2165064   0.0000000), wk =   0.0078125
        k(   15) = (   0.0000000  -0.1443376   0.0000000), wk =   0.0078125
        k(   16) = (   0.0000000  -0.0721688   0.0000000), wk =   0.0078125
        k(   17) = (   0.0625000   0.0360844   0.0000000), wk =   0.0078125
        k(   18) = (   0.0625000   0.1082532   0.0000000), wk =   0.0078125
        k(   19) = (   0.0625000   0.1804220   0.0000000), wk =   0.0078125
        k(   20) = (   0.0625000   0.2525907   0.0000000), wk =   0.0078125
        k(   21) = (   0.0625000   0.3247595   0.0000000), wk =   0.0078125
        k(   22) = (   0.0625000   0.3969283   0.0000000), wk =   0.0078125
        k(   23) = (   0.0625000   0.4690971   0.0000000), wk =   0.0078125
        k(   24) = (   0.0625000   0.5412659   0.0000000), wk =   0.0078125
        k(   25) = (   0.0625000  -0.5412659   0.0000000), wk =   0.0078125
        k(   26) = (   0.0625000  -0.4690971   0.0000000), wk =   0.0078125
        k(   27) = (   0.0625000  -0.3969283   0.0000000), wk =   0.0078125
        k(   28) = (   0.0625000  -0.3247595   0.0000000), wk =   0.0078125
        k(   29) = (   0.0625000  -0.2525907   0.0000000), wk =   0.0078125
        k(   30) = (   0.0625000  -0.1804220   0.0000000), wk =   0.0078125
        k(   31) = (   0.0625000  -0.1082532   0.0000000), wk =   0.0078125
        k(   32) = (   0.0625000  -0.0360844   0.0000000), wk =   0.0078125
        k(   33) = (   0.1250000   0.0721688   0.0000000), wk =   0.0078125
        k(   34) = (   0.1250000   0.1443376   0.0000000), wk =   0.0078125
        k(   35) = (   0.1250000   0.2165064   0.0000000), wk =   0.0078125
        k(   36) = (   0.1250000   0.2886751   0.0000000), wk =   0.0078125
        k(   37) = (   0.1250000   0.3608439   0.0000000), wk =   0.0078125
        k(   38) = (   0.1250000   0.4330127   0.0000000), wk =   0.0078125
        k(   39) = (   0.1250000   0.5051815   0.0000000), wk =   0.0078125
        k(   40) = (   0.1250000   0.5773503   0.0000000), wk =   0.0078125
        k(   41) = (   0.1250000  -0.5051815   0.0000000), wk =   0.0078125
        k(   42) = (   0.1250000  -0.4330127   0.0000000), wk =   0.0078125
        k(   43) = (   0.1250000  -0.3608439   0.0000000), wk =   0.0078125
        k(   44) = (   0.1250000  -0.2886751   0.0000000), wk =   0.0078125
        k(   45) = (   0.1250000  -0.2165064   0.0000000), wk =   0.0078125
        k(   46) = (   0.1250000  -0.1443376   0.0000000), wk =   0.0078125
        k(   47) = (   0.1250000  -0.0721688   0.0000000), wk =   0.0078125
        k(   48) = (   0.1250000   0.0000000   0.0000000), wk =   0.0078125
        k(   49) = (   0.1875000   0.1082532   0.0000000), wk =   0.0078125
        k(   50) = (   0.1875000   0.1804220   0.0000000), wk =   0.0078125
        k(   51) = (   0.1875000   0.2525907   0.0000000), wk =   0.0078125
        k(   52) = (   0.1875000   0.3247595   0.0000000), wk =   0.0078125
        k(   53) = (   0.1875000   0.3969283   0.0000000), wk =   0.0078125
        k(   54) = (   0.1875000   0.4690971   0.0000000), wk =   0.0078125
        k(   55) = (   0.1875000   0.5412659   0.0000000), wk =   0.0078125
        k(   56) = (   0.1875000   0.6134347   0.0000000), wk =   0.0078125
        k(   57) = (   0.1875000  -0.4690971   0.0000000), wk =   0.0078125
        k(   58) = (   0.1875000  -0.3969283   0.0000000), wk =   0.0078125
        k(   59) = (   0.1875000  -0.3247595   0.0000000), wk =   0.0078125
        k(   60) = (   0.1875000  -0.2525907   0.0000000), wk =   0.0078125
        k(   61) = (   0.1875000  -0.1804220   0.0000000), wk =   0.0078125
        k(   62) = (   0.1875000  -0.1082532   0.0000000), wk =   0.0078125
        k(   63) = (   0.1875000  -0.0360844   0.0000000), wk =   0.0078125
        k(   64) = (   0.1875000   0.0360844   0.0000000), wk =   0.0078125
        k(   65) = (   0.2500000   0.1443376   0.0000000), wk =   0.0078125
        k(   66) = (   0.2500000   0.2165064   0.0000000), wk =   0.0078125
        k(   67) = (   0.2500000   0.2886751   0.0000000), wk =   0.0078125
        k(   68) = (   0.2500000   0.3608439   0.0000000), wk =   0.0078125
        k(   69) = (   0.2500000   0.4330127   0.0000000), wk =   0.0078125
        k(   70) = (   0.2500000   0.5051815   0.0000000), wk =   0.0078125
        k(   71) = (   0.2500000   0.5773503   0.0000000), wk =   0.0078125
        k(   72) = (   0.2500000   0.6495191   0.0000000), wk =   0.0078125
        k(   73) = (   0.2500000  -0.4330127   0.0000000), wk =   0.0078125
        k(   74) = (   0.2500000  -0.3608439   0.0000000), wk =   0.0078125
        k(   75) = (   0.2500000  -0.2886751   0.0000000), wk =   0.0078125
        k(   76) = (   0.2500000  -0.2165064   0.0000000), wk =   0.0078125
        k(   77) = (   0.2500000  -0.1443376   0.0000000), wk =   0.0078125
        k(   78) = (   0.2500000  -0.0721688   0.0000000), wk =   0.0078125
        k(   79) = (   0.2500000   0.0000000   0.0000000), wk =   0.0078125
        k(   80) = (   0.2500000   0.0721688   0.0000000), wk =   0.0078125
        k(   81) = (   0.3125000   0.1804220   0.0000000), wk =   0.0078125
        k(   82) = (   0.3125000   0.2525907   0.0000000), wk =   0.0078125
        k(   83) = (   0.3125000   0.3247595   0.0000000), wk =   0.0078125
        k(   84) = (   0.3125000   0.3969283   0.0000000), wk =   0.0078125
        k(   85) = (   0.3125000   0.4690971   0.0000000), wk =   0.0078125
        k(   86) = (   0.3125000   0.5412659   0.0000000), wk =   0.0078125
        k(   87) = (   0.3125000   0.6134347   0.0000000), wk =   0.0078125
        k(   88) = (   0.3125000   0.6856034   0.0000000), wk =   0.0078125
        k(   89) = (   0.3125000  -0.3969283   0.0000000), wk =   0.0078125
        k(   90) = (   0.3125000  -0.3247595   0.0000000), wk =   0.0078125
        k(   91) = (   0.3125000  -0.2525907   0.0000000), wk =   0.0078125
        k(   92) = (   0.3125000  -0.1804220   0.0000000), wk =   0.0078125
        k(   93) = (   0.3125000  -0.1082532   0.0000000), wk =   0.0078125
        k(   94) = (   0.3125000  -0.0360844   0.0000000), wk =   0.0078125
        k(   95) = (   0.3125000   0.0360844   0.0000000), wk =   0.0078125
        k(   96) = (   0.3125000   0.1082532   0.0000000), wk =   0.0078125
        k(   97) = (   0.3750000   0.2165064   0.0000000), wk =   0.0078125
        k(   98) = (   0.3750000   0.2886751   0.0000000), wk =   0.0078125
        k(   99) = (   0.3750000   0.3608439   0.0000000), wk =   0.0078125
        k(  100) = (   0.3750000   0.4330127   0.0000000), wk =   0.0078125
        k(  101) = (   0.3750000   0.5051815   0.0000000), wk =   0.0078125
        k(  102) = (   0.3750000   0.5773503   0.0000000), wk =   0.0078125
        k(  103) = (   0.3750000   0.6495191   0.0000000), wk =   0.0078125
        k(  104) = (   0.3750000   0.7216878   0.0000000), wk =   0.0078125
        k(  105) = (   0.3750000  -0.3608439   0.0000000), wk =   0.0078125
        k(  106) = (   0.3750000  -0.2886751   0.0000000), wk =   0.0078125
        k(  107) = (   0.3750000  -0.2165064   0.0000000), wk =   0.0078125
        k(  108) = (   0.3750000  -0.1443376   0.0000000), wk =   0.0078125
        k(  109) = (   0.3750000  -0.0721688   0.0000000), wk =   0.0078125
        k(  110) = (   0.3750000   0.0000000   0.0000000), wk =   0.0078125
        k(  111) = (   0.3750000   0.0721688   0.0000000), wk =   0.0078125
        k(  112) = (   0.3750000   0.1443376   0.0000000), wk =   0.0078125
        k(  113) = (   0.4375000   0.2525907   0.0000000), wk =   0.0078125
        k(  114) = (   0.4375000   0.3247595   0.0000000), wk =   0.0078125
        k(  115) = (   0.4375000   0.3969283   0.0000000), wk =   0.0078125
        k(  116) = (   0.4375000   0.4690971   0.0000000), wk =   0.0078125
        k(  117) = (   0.4375000   0.5412659   0.0000000), wk =   0.0078125
        k(  118) = (   0.4375000   0.6134347   0.0000000), wk =   0.0078125
        k(  119) = (   0.4375000   0.6856034   0.0000000), wk =   0.0078125
        k(  120) = (   0.4375000   0.7577722   0.0000000), wk =   0.0078125
        k(  121) = (   0.4375000  -0.3247595   0.0000000), wk =   0.0078125
        k(  122) = (   0.4375000  -0.2525907   0.0000000), wk =   0.0078125
        k(  123) = (   0.4375000  -0.1804220   0.0000000), wk =   0.0078125
        k(  124) = (   0.4375000  -0.1082532   0.0000000), wk =   0.0078125
        k(  125) = (   0.4375000  -0.0360844   0.0000000), wk =   0.0078125
        k(  126) = (   0.4375000   0.0360844   0.0000000), wk =   0.0078125
        k(  127) = (   0.4375000   0.1082532   0.0000000), wk =   0.0078125
        k(  128) = (   0.4375000   0.1804220   0.0000000), wk =   0.0078125
        k(  129) = (  -0.5000000  -0.2886751   0.0000000), wk =   0.0078125
        k(  130) = (  -0.5000000  -0.2165064   0.0000000), wk =   0.0078125
        k(  131) = (  -0.5000000  -0.1443376   0.0000000), wk =   0.0078125
        k(  132) = (  -0.5000000  -0.0721688   0.0000000), wk =   0.0078125
        k(  133) = (  -0.5000000   0.0000000   0.0000000), wk =   0.0078125
        k(  134) = (  -0.5000000   0.0721688   0.0000000), wk =   0.0078125
        k(  135) = (  -0.5000000   0.1443376   0.0000000), wk =   0.0078125
        k(  136) = (  -0.5000000   0.2165064   0.0000000), wk =   0.0078125
        k(  137) = (  -0.5000000  -0.8660254   0.0000000), wk =   0.0078125
        k(  138) = (  -0.5000000  -0.7938566   0.0000000), wk =   0.0078125
        k(  139) = (  -0.5000000  -0.7216878   0.0000000), wk =   0.0078125
        k(  140) = (  -0.5000000  -0.6495191   0.0000000), wk =   0.0078125
        k(  141) = (  -0.5000000  -0.5773503   0.0000000), wk =   0.0078125
        k(  142) = (  -0.5000000  -0.5051815   0.0000000), wk =   0.0078125
        k(  143) = (  -0.5000000  -0.4330127   0.0000000), wk =   0.0078125
        k(  144) = (  -0.5000000  -0.3608439   0.0000000), wk =   0.0078125
        k(  145) = (  -0.4375000  -0.2525907   0.0000000), wk =   0.0078125
        k(  146) = (  -0.4375000  -0.1804220   0.0000000), wk =   0.0078125
        k(  147) = (  -0.4375000  -0.1082532   0.0000000), wk =   0.0078125
        k(  148) = (  -0.4375000  -0.0360844   0.0000000), wk =   0.0078125
        k(  149) = (  -0.4375000   0.0360844   0.0000000), wk =   0.0078125
        k(  150) = (  -0.4375000   0.1082532   0.0000000), wk =   0.0078125
        k(  151) = (  -0.4375000   0.1804220   0.0000000), wk =   0.0078125
        k(  152) = (  -0.4375000   0.2525907   0.0000000), wk =   0.0078125
        k(  153) = (  -0.4375000  -0.8299410   0.0000000), wk =   0.0078125
        k(  154) = (  -0.4375000  -0.7577722   0.0000000), wk =   0.0078125
        k(  155) = (  -0.4375000  -0.6856034   0.0000000), wk =   0.0078125
        k(  156) = (  -0.4375000  -0.6134347   0.0000000), wk =   0.0078125
        k(  157) = (  -0.4375000  -0.5412659   0.0000000), wk =   0.0078125
        k(  158) = (  -0.4375000  -0.4690971   0.0000000), wk =   0.0078125
        k(  159) = (  -0.4375000  -0.3969283   0.0000000), wk =   0.0078125
        k(  160) = (  -0.4375000  -0.3247595   0.0000000), wk =   0.0078125
        k(  161) = (  -0.3750000  -0.2165064   0.0000000), wk =   0.0078125
        k(  162) = (  -0.3750000  -0.1443376   0.0000000), wk =   0.0078125
        k(  163) = (  -0.3750000  -0.0721688   0.0000000), wk =   0.0078125
        k(  164) = (  -0.3750000   0.0000000   0.0000000), wk =   0.0078125
        k(  165) = (  -0.3750000   0.0721688   0.0000000), wk =   0.0078125
        k(  166) = (  -0.3750000   0.1443376   0.0000000), wk =   0.0078125
        k(  167) = (  -0.3750000   0.2165064   0.0000000), wk =   0.0078125
        k(  168) = (  -0.3750000   0.2886751   0.0000000), wk =   0.0078125
        k(  169) = (  -0.3750000  -0.7938566   0.0000000), wk =   0.0078125
        k(  170) = (  -0.3750000  -0.7216878   0.0000000), wk =   0.0078125
        k(  171) = (  -0.3750000  -0.6495191   0.0000000), wk =   0.0078125
        k(  172) = (  -0.3750000  -0.5773503   0.0000000), wk =   0.0078125
        k(  173) = (  -0.3750000  -0.5051815   0.0000000), wk =   0.0078125
        k(  174) = (  -0.3750000  -0.4330127   0.0000000), wk =   0.0078125
        k(  175) = (  -0.3750000  -0.3608439   0.0000000), wk =   0.0078125
        k(  176) = (  -0.3750000  -0.2886751   0.0000000), wk =   0.0078125
        k(  177) = (  -0.3125000  -0.1804220   0.0000000), wk =   0.0078125
        k(  178) = (  -0.3125000  -0.1082532   0.0000000), wk =   0.0078125
        k(  179) = (  -0.3125000  -0.0360844   0.0000000), wk =   0.0078125
        k(  180) = (  -0.3125000   0.0360844   0.0000000), wk =   0.0078125
        k(  181) = (  -0.3125000   0.1082532   0.0000000), wk =   0.0078125
        k(  182) = (  -0.3125000   0.1804220   0.0000000), wk =   0.0078125
        k(  183) = (  -0.3125000   0.2525907   0.0000000), wk =   0.0078125
        k(  184) = (  -0.3125000   0.3247595   0.0000000), wk =   0.0078125
        k(  185) = (  -0.3125000  -0.7577722   0.0000000), wk =   0.0078125
        k(  186) = (  -0.3125000  -0.6856034   0.0000000), wk =   0.0078125
        k(  187) = (  -0.3125000  -0.6134347   0.0000000), wk =   0.0078125
        k(  188) = (  -0.3125000  -0.5412659   0.0000000), wk =   0.0078125
        k(  189) = (  -0.3125000  -0.4690971   0.0000000), wk =   0.0078125
        k(  190) = (  -0.3125000  -0.3969283   0.0000000), wk =   0.0078125
        k(  191) = (  -0.3125000  -0.3247595   0.0000000), wk =   0.0078125
        k(  192) = (  -0.3125000  -0.2525907   0.0000000), wk =   0.0078125
        k(  193) = (  -0.2500000  -0.1443376   0.0000000), wk =   0.0078125
        k(  194) = (  -0.2500000  -0.0721688   0.0000000), wk =   0.0078125
        k(  195) = (  -0.2500000   0.0000000   0.0000000), wk =   0.0078125
        k(  196) = (  -0.2500000   0.0721688   0.0000000), wk =   0.0078125
        k(  197) = (  -0.2500000   0.1443376   0.0000000), wk =   0.0078125
        k(  198) = (  -0.2500000   0.2165064   0.0000000), wk =   0.0078125
        k(  199) = (  -0.2500000   0.2886751   0.0000000), wk =   0.0078125
        k(  200) = (  -0.2500000   0.3608439   0.0000000), wk =   0.0078125
        k(  201) = (  -0.2500000  -0.7216878   0.0000000), wk =   0.0078125
        k(  202) = (  -0.2500000  -0.6495191   0.0000000), wk =   0.0078125
        k(  203) = (  -0.2500000  -0.5773503   0.0000000), wk =   0.0078125
        k(  204) = (  -0.2500000  -0.5051815   0.0000000), wk =   0.0078125
        k(  205) = (  -0.2500000  -0.4330127   0.0000000), wk =   0.0078125
        k(  206) = (  -0.2500000  -0.3608439   0.0000000), wk =   0.0078125
        k(  207) = (  -0.2500000  -0.2886751   0.0000000), wk =   0.0078125
        k(  208) = (  -0.2500000  -0.2165064   0.0000000), wk =   0.0078125
        k(  209) = (  -0.1875000  -0.1082532   0.0000000), wk =   0.0078125
        k(  210) = (  -0.1875000  -0.0360844   0.0000000), wk =   0.0078125
        k(  211) = (  -0.1875000   0.0360844   0.0000000), wk =   0.0078125
        k(  212) = (  -0.1875000   0.1082532   0.0000000), wk =   0.0078125
        k(  213) = (  -0.1875000   0.1804220   0.0000000), wk =   0.0078125
        k(  214) = (  -0.1875000   0.2525907   0.0000000), wk =   0.0078125
        k(  215) = (  -0.1875000   0.3247595   0.0000000), wk =   0.0078125
        k(  216) = (  -0.1875000   0.3969283   0.0000000), wk =   0.0078125
        k(  217) = (  -0.1875000  -0.6856034   0.0000000), wk =   0.0078125
        k(  218) = (  -0.1875000  -0.6134347   0.0000000), wk =   0.0078125
        k(  219) = (  -0.1875000  -0.5412659   0.0000000), wk =   0.0078125
        k(  220) = (  -0.1875000  -0.4690971   0.0000000), wk =   0.0078125
        k(  221) = (  -0.1875000  -0.3969283   0.0000000), wk =   0.0078125
        k(  222) = (  -0.1875000  -0.3247595   0.0000000), wk =   0.0078125
        k(  223) = (  -0.1875000  -0.2525907   0.0000000), wk =   0.0078125
        k(  224) = (  -0.1875000  -0.1804220   0.0000000), wk =   0.0078125
        k(  225) = (  -0.1250000  -0.0721688   0.0000000), wk =   0.0078125
        k(  226) = (  -0.1250000   0.0000000   0.0000000), wk =   0.0078125
        k(  227) = (  -0.1250000   0.0721688   0.0000000), wk =   0.0078125
        k(  228) = (  -0.1250000   0.1443376   0.0000000), wk =   0.0078125
        k(  229) = (  -0.1250000   0.2165064   0.0000000), wk =   0.0078125
        k(  230) = (  -0.1250000   0.2886751   0.0000000), wk =   0.0078125
        k(  231) = (  -0.1250000   0.3608439   0.0000000), wk =   0.0078125
        k(  232) = (  -0.1250000   0.4330127   0.0000000), wk =   0.0078125
        k(  233) = (  -0.1250000  -0.6495191   0.0000000), wk =   0.0078125
        k(  234) = (  -0.1250000  -0.5773503   0.0000000), wk =   0.0078125
        k(  235) = (  -0.1250000  -0.5051815   0.0000000), wk =   0.0078125
        k(  236) = (  -0.1250000  -0.4330127   0.0000000), wk =   0.0078125
        k(  237) = (  -0.1250000  -0.3608439   0.0000000), wk =   0.0078125
        k(  238) = (  -0.1250000  -0.2886751   0.0000000), wk =   0.0078125
        k(  239) = (  -0.1250000  -0.2165064   0.0000000), wk =   0.0078125
        k(  240) = (  -0.1250000  -0.1443376   0.0000000), wk =   0.0078125
        k(  241) = (  -0.0625000  -0.0360844   0.0000000), wk =   0.0078125
        k(  242) = (  -0.0625000   0.0360844   0.0000000), wk =   0.0078125
        k(  243) = (  -0.0625000   0.1082532   0.0000000), wk =   0.0078125
        k(  244) = (  -0.0625000   0.1804220   0.0000000), wk =   0.0078125
        k(  245) = (  -0.0625000   0.2525907   0.0000000), wk =   0.0078125
        k(  246) = (  -0.0625000   0.3247595   0.0000000), wk =   0.0078125
        k(  247) = (  -0.0625000   0.3969283   0.0000000), wk =   0.0078125
        k(  248) = (  -0.0625000   0.4690971   0.0000000), wk =   0.0078125
        k(  249) = (  -0.0625000  -0.6134347   0.0000000), wk =   0.0078125
        k(  250) = (  -0.0625000  -0.5412659   0.0000000), wk =   0.0078125
        k(  251) = (  -0.0625000  -0.4690971   0.0000000), wk =   0.0078125
        k(  252) = (  -0.0625000  -0.3969283   0.0000000), wk =   0.0078125
        k(  253) = (  -0.0625000  -0.3247595   0.0000000), wk =   0.0078125
        k(  254) = (  -0.0625000  -0.2525907   0.0000000), wk =   0.0078125
        k(  255) = (  -0.0625000  -0.1804220   0.0000000), wk =   0.0078125
        k(  256) = (  -0.0625000  -0.1082532   0.0000000), wk =   0.0078125

                       cryst. coord.
        k(    1) = (   0.0000000   0.0000000   0.0000000), wk =   0.0078125
        k(    2) = (   0.0000000   0.0625000   0.0000000), wk =   0.0078125
        k(    3) = (   0.0000000   0.1250000   0.0000000), wk =   0.0078125
        k(    4) = (   0.0000000   0.1875000   0.0000000), wk =   0.0078125
        k(    5) = (   0.0000000   0.2500000   0.0000000), wk =   0.0078125
        k(    6) = (   0.0000000   0.3125000   0.0000000), wk =   0.0078125
        k(    7) = (   0.0000000   0.3750000   0.0000000), wk =   0.0078125
        k(    8) = (   0.0000000   0.4375000   0.0000000), wk =   0.0078125
        k(    9) = (   0.0000000  -0.5000000   0.0000000), wk =   0.0078125
        k(   10) = (   0.0000000  -0.4375000   0.0000000), wk =   0.0078125
        k(   11) = (   0.0000000  -0.3750000   0.0000000), wk =   0.0078125
        k(   12) = (   0.0000000  -0.3125000   0.0000000), wk =   0.0078125
        k(   13) = (   0.0000000  -0.2500000   0.0000000), wk =   0.0078125
        k(   14) = (   0.0000000  -0.1875000   0.0000000), wk =   0.0078125
        k(   15) = (   0.0000000  -0.1250000   0.0000000), wk =   0.0078125
        k(   16) = (   0.0000000  -0.0625000   0.0000000), wk =   0.0078125
        k(   17) = (   0.0625000   0.0000000   0.0000000), wk =   0.0078125
        k(   18) = (   0.0625000   0.0625000   0.0000000), wk =   0.0078125
        k(   19) = (   0.0625000   0.1250000   0.0000000), wk =   0.0078125
        k(   20) = (   0.0625000   0.1875000   0.0000000), wk =   0.0078125
        k(   21) = (   0.0625000   0.2500000   0.0000000), wk =   0.0078125
        k(   22) = (   0.0625000   0.3125000   0.0000000), wk =   0.0078125
        k(   23) = (   0.0625000   0.3750000   0.0000000), wk =   0.0078125
        k(   24) = (   0.0625000   0.4375000   0.0000000), wk =   0.0078125
        k(   25) = (   0.0625000  -0.5000000   0.0000000), wk =   0.0078125
        k(   26) = (   0.0625000  -0.4375000   0.0000000), wk =   0.0078125
        k(   27) = (   0.0625000  -0.3750000   0.0000000), wk =   0.0078125
        k(   28) = (   0.0625000  -0.3125000   0.0000000), wk =   0.0078125
        k(   29) = (   0.0625000  -0.2500000   0.0000000), wk =   0.0078125
        k(   30) = (   0.0625000  -0.1875000   0.0000000), wk =   0.0078125
        k(   31) = (   0.0625000  -0.1250000   0.0000000), wk =   0.0078125
        k(   32) = (   0.0625000  -0.0625000   0.0000000), wk =   0.0078125
        k(   33) = (   0.1250000   0.0000000   0.0000000), wk =   0.0078125
        k(   34) = (   0.1250000   0.0625000   0.0000000), wk =   0.0078125
        k(   35) = (   0.1250000   0.1250000   0.0000000), wk =   0.0078125
        k(   36) = (   0.1250000   0.1875000   0.0000000), wk =   0.0078125
        k(   37) = (   0.1250000   0.2500000   0.0000000), wk =   0.0078125
        k(   38) = (   0.1250000   0.3125000   0.0000000), wk =   0.0078125
        k(   39) = (   0.1250000   0.3750000   0.0000000), wk =   0.0078125
        k(   40) = (   0.1250000   0.4375000   0.0000000), wk =   0.0078125
        k(   41) = (   0.1250000  -0.5000000   0.0000000), wk =   0.0078125
        k(   42) = (   0.1250000  -0.4375000   0.0000000), wk =   0.0078125
        k(   43) = (   0.1250000  -0.3750000   0.0000000), wk =   0.0078125
        k(   44) = (   0.1250000  -0.3125000   0.0000000), wk =   0.0078125
        k(   45) = (   0.1250000  -0.2500000   0.0000000), wk =   0.0078125
        k(   46) = (   0.1250000  -0.1875000   0.0000000), wk =   0.0078125
        k(   47) = (   0.1250000  -0.1250000   0.0000000), wk =   0.0078125
        k(   48) = (   0.1250000  -0.0625000   0.0000000), wk =   0.0078125
        k(   49) = (   0.1875000  -0.0000000   0.0000000), wk =   0.0078125
        k(   50) = (   0.1875000   0.0625000   0.0000000), wk =   0.0078125
        k(   51) = (   0.1875000   0.1250000   0.0000000), wk =   0.0078125
        k(   52) = (   0.1875000   0.1875000   0.0000000), wk =   0.0078125
        k(   53) = (   0.1875000   0.2500000   0.0000000), wk =   0.0078125
        k(   54) = (   0.1875000   0.3125000   0.0000000), wk =   0.0078125
        k(   55) = (   0.1875000   0.3750000   0.0000000), wk =   0.0078125
        k(   56) = (   0.1875000   0.4375000   0.0000000), wk =   0.0078125
        k(   57) = (   0.1875000  -0.5000000   0.0000000), wk =   0.0078125
        k(   58) = (   0.1875000  -0.4375000   0.0000000), wk =   0.0078125
        k(   59) = (   0.1875000  -0.3750000   0.0000000), wk =   0.0078125
        k(   60) = (   0.1875000  -0.3125000   0.0000000), wk =   0.0078125
        k(   61) = (   0.1875000  -0.2500000   0.0000000), wk =   0.0078125
        k(   62) = (   0.1875000  -0.1875000   0.0000000), wk =   0.0078125
        k(   63) = (   0.1875000  -0.1250000   0.0000000), wk =   0.0078125
        k(   64) = (   0.1875000  -0.0625000   0.0000000), wk =   0.0078125
        k(   65) = (   0.2500000   0.0000000   0.0000000), wk =   0.0078125
        k(   66) = (   0.2500000   0.0625000   0.0000000), wk =   0.0078125
        k(   67) = (   0.2500000   0.1250000   0.0000000), wk =   0.0078125
        k(   68) = (   0.2500000   0.1875000   0.0000000), wk =   0.0078125
        k(   69) = (   0.2500000   0.2500000   0.0000000), wk =   0.0078125
        k(   70) = (   0.2500000   0.3125000   0.0000000), wk =   0.0078125
        k(   71) = (   0.2500000   0.3750000   0.0000000), wk =   0.0078125
        k(   72) = (   0.2500000   0.4375000   0.0000000), wk =   0.0078125
        k(   73) = (   0.2500000  -0.5000000   0.0000000), wk =   0.0078125
        k(   74) = (   0.2500000  -0.4375000   0.0000000), wk =   0.0078125
        k(   75) = (   0.2500000  -0.3750000   0.0000000), wk =   0.0078125
        k(   76) = (   0.2500000  -0.3125000   0.0000000), wk =   0.0078125
        k(   77) = (   0.2500000  -0.2500000   0.0000000), wk =   0.0078125
        k(   78) = (   0.2500000  -0.1875000   0.0000000), wk =   0.0078125
        k(   79) = (   0.2500000  -0.1250000   0.0000000), wk =   0.0078125
        k(   80) = (   0.2500000  -0.0625000   0.0000000), wk =   0.0078125
        k(   81) = (   0.3125000   0.0000000   0.0000000), wk =   0.0078125
        k(   82) = (   0.3125000   0.0625000   0.0000000), wk =   0.0078125
        k(   83) = (   0.3125000   0.1250000   0.0000000), wk =   0.0078125
        k(   84) = (   0.3125000   0.1875000   0.0000000), wk =   0.0078125
        k(   85) = (   0.3125000   0.2500000   0.0000000), wk =   0.0078125
        k(   86) = (   0.3125000   0.3125000   0.0000000), wk =   0.0078125
        k(   87) = (   0.3125000   0.3750000   0.0000000), wk =   0.0078125
        k(   88) = (   0.3125000   0.4375000   0.0000000), wk =   0.0078125
        k(   89) = (   0.3125000  -0.5000000   0.0000000), wk =   0.0078125
        k(   90) = (   0.3125000  -0.4375000   0.0000000), wk =   0.0078125
        k(   91) = (   0.3125000  -0.3750000   0.0000000), wk =   0.0078125
        k(   92) = (   0.3125000  -0.3125000   0.0000000), wk =   0.0078125
        k(   93) = (   0.3125000  -0.2500000   0.0000000), wk =   0.0078125
        k(   94) = (   0.3125000  -0.1875000   0.0000000), wk =   0.0078125
        k(   95) = (   0.3125000  -0.1250000   0.0000000), wk =   0.0078125
        k(   96) = (   0.3125000  -0.0625000   0.0000000), wk =   0.0078125
        k(   97) = (   0.3750000  -0.0000000   0.0000000), wk =   0.0078125
        k(   98) = (   0.3750000   0.0625000   0.0000000), wk =   0.0078125
        k(   99) = (   0.3750000   0.1250000   0.0000000), wk =   0.0078125
        k(  100) = (   0.3750000   0.1875000   0.0000000), wk =   0.0078125
        k(  101) = (   0.3750000   0.2500000   0.0000000), wk =   0.0078125
        k(  102) = (   0.3750000   0.3125000   0.0000000), wk =   0.0078125
        k(  103) = (   0.3750000   0.3750000   0.0000000), wk =   0.0078125
        k(  104) = (   0.3750000   0.4375000   0.0000000), wk =   0.0078125
        k(  105) = (   0.3750000  -0.5000000   0.0000000), wk =   0.0078125
        k(  106) = (   0.3750000  -0.4375000   0.0000000), wk =   0.0078125
        k(  107) = (   0.3750000  -0.3750000   0.0000000), wk =   0.0078125
        k(  108) = (   0.3750000  -0.3125000   0.0000000), wk =   0.0078125
        k(  109) = (   0.3750000  -0.2500000   0.0000000), wk =   0.0078125
        k(  110) = (   0.3750000  -0.1875000   0.0000000), wk =   0.0078125
        k(  111) = (   0.3750000  -0.1250000   0.0000000), wk =   0.0078125
        k(  112) = (   0.3750000  -0.0625000   0.0000000), wk =   0.0078125
        k(  113) = (   0.4375000   0.0000000   0.0000000), wk =   0.0078125
        k(  114) = (   0.4375000   0.0625000   0.0000000), wk =   0.0078125
        k(  115) = (   0.4375000   0.1250000   0.0000000), wk =   0.0078125
        k(  116) = (   0.4375000   0.1875000   0.0000000), wk =   0.0078125
        k(  117) = (   0.4375000   0.2500000   0.0000000), wk =   0.0078125
        k(  118) = (   0.4375000   0.3125000   0.0000000), wk =   0.0078125
        k(  119) = (   0.4375000   0.3750000   0.0000000), wk =   0.0078125
        k(  120) = (   0.4375000   0.4375000   0.0000000), wk =   0.0078125
        k(  121) = (   0.4375000  -0.5000000   0.0000000), wk =   0.0078125
        k(  122) = (   0.4375000  -0.4375000   0.0000000), wk =   0.0078125
        k(  123) = (   0.4375000  -0.3750000   0.0000000), wk =   0.0078125
        k(  124) = (   0.4375000  -0.3125000   0.0000000), wk =   0.0078125
        k(  125) = (   0.4375000  -0.2500000   0.0000000), wk =   0.0078125
        k(  126) = (   0.4375000  -0.1875000   0.0000000), wk =   0.0078125
        k(  127) = (   0.4375000  -0.1250000   0.0000000), wk =   0.0078125
        k(  128) = (   0.4375000  -0.0625000   0.0000000), wk =   0.0078125
        k(  129) = (  -0.5000000   0.0000000   0.0000000), wk =   0.0078125
        k(  130) = (  -0.5000000   0.0625000   0.0000000), wk =   0.0078125
        k(  131) = (  -0.5000000   0.1250000   0.0000000), wk =   0.0078125
        k(  132) = (  -0.5000000   0.1875000   0.0000000), wk =   0.0078125
        k(  133) = (  -0.5000000   0.2500000   0.0000000), wk =   0.0078125
        k(  134) = (  -0.5000000   0.3125000   0.0000000), wk =   0.0078125
        k(  135) = (  -0.5000000   0.3750000   0.0000000), wk =   0.0078125
        k(  136) = (  -0.5000000   0.4375000   0.0000000), wk =   0.0078125
        k(  137) = (  -0.5000000  -0.5000000   0.0000000), wk =   0.0078125
        k(  138) = (  -0.5000000  -0.4375000   0.0000000), wk =   0.0078125
        k(  139) = (  -0.5000000  -0.3750000   0.0000000), wk =   0.0078125
        k(  140) = (  -0.5000000  -0.3125000   0.0000000), wk =   0.0078125
        k(  141) = (  -0.5000000  -0.2500000   0.0000000), wk =   0.0078125
        k(  142) = (  -0.5000000  -0.1875000   0.0000000), wk =   0.0078125
        k(  143) = (  -0.5000000  -0.1250000   0.0000000), wk =   0.0078125
        k(  144) = (  -0.5000000  -0.0625000   0.0000000), wk =   0.0078125
        k(  145) = (  -0.4375000   0.0000000   0.0000000), wk =   0.0078125
        k(  146) = (  -0.4375000   0.0625000   0.0000000), wk =   0.0078125
        k(  147) = (  -0.4375000   0.1250000   0.0000000), wk =   0.0078125
        k(  148) = (  -0.4375000   0.1875000   0.0000000), wk =   0.0078125
        k(  149) = (  -0.4375000   0.2500000   0.0000000), wk =   0.0078125
        k(  150) = (  -0.4375000   0.3125000   0.0000000), wk =   0.0078125
        k(  151) = (  -0.4375000   0.3750000   0.0000000), wk =   0.0078125
        k(  152) = (  -0.4375000   0.4375000   0.0000000), wk =   0.0078125
        k(  153) = (  -0.4375000  -0.5000000   0.0000000), wk =   0.0078125
        k(  154) = (  -0.4375000  -0.4375000   0.0000000), wk =   0.0078125
        k(  155) = (  -0.4375000  -0.3750000   0.0000000), wk =   0.0078125
        k(  156) = (  -0.4375000  -0.3125000   0.0000000), wk =   0.0078125
        k(  157) = (  -0.4375000  -0.2500000   0.0000000), wk =   0.0078125
        k(  158) = (  -0.4375000  -0.1875000   0.0000000), wk =   0.0078125
        k(  159) = (  -0.4375000  -0.1250000   0.0000000), wk =   0.0078125
        k(  160) = (  -0.4375000  -0.0625000   0.0000000), wk =   0.0078125
        k(  161) = (  -0.3750000   0.0000000   0.0000000), wk =   0.0078125
        k(  162) = (  -0.3750000   0.0625000   0.0000000), wk =   0.0078125
        k(  163) = (  -0.3750000   0.1250000   0.0000000), wk =   0.0078125
        k(  164) = (  -0.3750000   0.1875000   0.0000000), wk =   0.0078125
        k(  165) = (  -0.3750000   0.2500000   0.0000000), wk =   0.0078125
        k(  166) = (  -0.3750000   0.3125000   0.0000000), wk =   0.0078125
        k(  167) = (  -0.3750000   0.3750000   0.0000000), wk =   0.0078125
        k(  168) = (  -0.3750000   0.4375000   0.0000000), wk =   0.0078125
        k(  169) = (  -0.3750000  -0.5000000   0.0000000), wk =   0.0078125
        k(  170) = (  -0.3750000  -0.4375000   0.0000000), wk =   0.0078125
        k(  171) = (  -0.3750000  -0.3750000   0.0000000), wk =   0.0078125
        k(  172) = (  -0.3750000  -0.3125000   0.0000000), wk =   0.0078125
        k(  173) = (  -0.3750000  -0.2500000   0.0000000), wk =   0.0078125
        k(  174) = (  -0.3750000  -0.1875000   0.0000000), wk =   0.0078125
        k(  175) = (  -0.3750000  -0.1250000   0.0000000), wk =   0.0078125
        k(  176) = (  -0.3750000  -0.0625000   0.0000000), wk =   0.0078125
        k(  177) = (  -0.3125000   0.0000000   0.0000000), wk =   0.0078125
        k(  178) = (  -0.3125000   0.0625000   0.0000000), wk =   0.0078125
        k(  179) = (  -0.3125000   0.1250000   0.0000000), wk =   0.0078125
        k(  180) = (  -0.3125000   0.1875000   0.0000000), wk =   0.0078125
        k(  181) = (  -0.3125000   0.2500000   0.0000000), wk =   0.0078125
        k(  182) = (  -0.3125000   0.3125000   0.0000000), wk =   0.0078125
        k(  183) = (  -0.3125000   0.3750000   0.0000000), wk =   0.0078125
        k(  184) = (  -0.3125000   0.4375000   0.0000000), wk =   0.0078125
        k(  185) = (  -0.3125000  -0.5000000   0.0000000), wk =   0.0078125
        k(  186) = (  -0.3125000  -0.4375000   0.0000000), wk =   0.0078125
        k(  187) = (  -0.3125000  -0.3750000   0.0000000), wk =   0.0078125
        k(  188) = (  -0.3125000  -0.3125000   0.0000000), wk =   0.0078125
        k(  189) = (  -0.3125000  -0.2500000   0.0000000), wk =   0.0078125
        k(  190) = (  -0.3125000  -0.1875000   0.0000000), wk =   0.0078125
        k(  191) = (  -0.3125000  -0.1250000   0.0000000), wk =   0.0078125
        k(  192) = (  -0.3125000  -0.0625000   0.0000000), wk =   0.0078125
        k(  193) = (  -0.2500000   0.0000000   0.0000000), wk =   0.0078125
        k(  194) = (  -0.2500000   0.0625000   0.0000000), wk =   0.0078125
        k(  195) = (  -0.2500000   0.1250000   0.0000000), wk =   0.0078125
        k(  196) = (  -0.2500000   0.1875000   0.0000000), wk =   0.0078125
        k(  197) = (  -0.2500000   0.2500000   0.0000000), wk =   0.0078125
        k(  198) = (  -0.2500000   0.3125000   0.0000000), wk =   0.0078125
        k(  199) = (  -0.2500000   0.3750000   0.0000000), wk =   0.0078125
        k(  200) = (  -0.2500000   0.4375000   0.0000000), wk =   0.0078125
        k(  201) = (  -0.2500000  -0.5000000   0.0000000), wk =   0.0078125
        k(  202) = (  -0.2500000  -0.4375000   0.0000000), wk =   0.0078125
        k(  203) = (  -0.2500000  -0.3750000   0.0000000), wk =   0.0078125
        k(  204) = (  -0.2500000  -0.3125000   0.0000000), wk =   0.0078125
        k(  205) = (  -0.2500000  -0.2500000   0.0000000), wk =   0.0078125
        k(  206) = (  -0.2500000  -0.1875000   0.0000000), wk =   0.0078125
        k(  207) = (  -0.2500000  -0.1250000   0.0000000), wk =   0.0078125
        k(  208) = (  -0.2500000  -0.0625000   0.0000000), wk =   0.0078125
        k(  209) = (  -0.1875000   0.0000000   0.0000000), wk =   0.0078125
        k(  210) = (  -0.1875000   0.0625000   0.0000000), wk =   0.0078125
        k(  211) = (  -0.1875000   0.1250000   0.0000000), wk =   0.0078125
        k(  212) = (  -0.1875000   0.1875000   0.0000000), wk =   0.0078125
        k(  213) = (  -0.1875000   0.2500000   0.0000000), wk =   0.0078125
        k(  214) = (  -0.1875000   0.3125000   0.0000000), wk =   0.0078125
        k(  215) = (  -0.1875000   0.3750000   0.0000000), wk =   0.0078125
        k(  216) = (  -0.1875000   0.4375000   0.0000000), wk =   0.0078125
        k(  217) = (  -0.1875000  -0.5000000   0.0000000), wk =   0.0078125
        k(  218) = (  -0.1875000  -0.4375000   0.0000000), wk =   0.0078125
        k(  219) = (  -0.1875000  -0.3750000   0.0000000), wk =   0.0078125
        k(  220) = (  -0.1875000  -0.3125000   0.0000000), wk =   0.0078125
        k(  221) = (  -0.1875000  -0.2500000   0.0000000), wk =   0.0078125
        k(  222) = (  -0.1875000  -0.1875000   0.0000000), wk =   0.0078125
        k(  223) = (  -0.1875000  -0.1250000   0.0000000), wk =   0.0078125
        k(  224) = (  -0.1875000  -0.0625000   0.0000000), wk =   0.0078125
        k(  225) = (  -0.1250000   0.0000000   0.0000000), wk =   0.0078125
        k(  226) = (  -0.1250000   0.0625000   0.0000000), wk =   0.0078125
        k(  227) = (  -0.1250000   0.1250000   0.0000000), wk =   0.0078125
        k(  228) = (  -0.1250000   0.1875000   0.0000000), wk =   0.0078125
        k(  229) = (  -0.1250000   0.2500000   0.0000000), wk =   0.0078125
        k(  230) = (  -0.1250000   0.3125000   0.0000000), wk =   0.0078125
        k(  231) = (  -0.1250000   0.3750000   0.0000000), wk =   0.0078125
        k(  232) = (  -0.1250000   0.4375000   0.0000000), wk =   0.0078125
        k(  233) = (  -0.1250000  -0.5000000   0.0000000), wk =   0.0078125
        k(  234) = (  -0.1250000  -0.4375000   0.0000000), wk =   0.0078125
        k(  235) = (  -0.1250000  -0.3750000   0.0000000), wk =   0.0078125
        k(  236) = (  -0.1250000  -0.3125000   0.0000000), wk =   0.0078125
        k(  237) = (  -0.1250000  -0.2500000   0.0000000), wk =   0.0078125
        k(  238) = (  -0.1250000  -0.1875000   0.0000000), wk =   0.0078125
        k(  239) = (  -0.1250000  -0.1250000   0.0000000), wk =   0.0078125
        k(  240) = (  -0.1250000  -0.0625000   0.0000000), wk =   0.0078125
        k(  241) = (  -0.0625000   0.0000000   0.0000000), wk =   0.0078125
        k(  242) = (  -0.0625000   0.0625000   0.0000000), wk =   0.0078125
        k(  243) = (  -0.0625000   0.1250000   0.0000000), wk =   0.0078125
        k(  244) = (  -0.0625000   0.1875000   0.0000000), wk =   0.0078125
        k(  245) = (  -0.0625000   0.2500000   0.0000000), wk =   0.0078125
        k(  246) = (  -0.0625000   0.3125000   0.0000000), wk =   0.0078125
        k(  247) = (  -0.0625000   0.3750000   0.0000000), wk =   0.0078125
        k(  248) = (  -0.0625000   0.4375000   0.0000000), wk =   0.0078125
        k(  249) = (  -0.0625000  -0.5000000   0.0000000), wk =   0.0078125
        k(  250) = (  -0.0625000  -0.4375000   0.0000000), wk =   0.0078125
        k(  251) = (  -0.0625000  -0.3750000   0.0000000), wk =   0.0078125
        k(  252) = (  -0.0625000  -0.3125000   0.0000000), wk =   0.0078125
        k(  253) = (  -0.0625000  -0.2500000   0.0000000), wk =   0.0078125
        k(  254) = (  -0.0625000  -0.1875000   0.0000000), wk =   0.0078125
        k(  255) = (  -0.0625000  -0.1250000   0.0000000), wk =   0.0078125
        k(  256) = (  -0.0625000  -0.0625000   0.0000000), wk =   0.0078125

     Dense  grid:    46525 G-vectors     FFT dimensions: (  24,  24, 192)

     Dynamical RAM for                 wfc:       0.22 MB

     Dynamical RAM for     wfc (w. buffer):       0.22 MB

     Dynamical RAM for           str. fact:       0.18 MB

     Dynamical RAM for           local pot:       0.00 MB

     Dynamical RAM for          nlocal pot:       0.35 MB

     Dynamical RAM for                qrad:       0.71 MB

     Dynamical RAM for          rho,v,vnew:       0.58 MB

     Dynamical RAM for           G-vectors:       0.38 MB

     Dynamical RAM for          h,s,v(r/c):       0.02 MB

     Dynamical RAM for          <psi|beta>:       0.01 MB

     Dynamical RAM for                 psi:       0.44 MB

     Dynamical RAM for                hpsi:       0.44 MB

     Dynamical RAM for      wfcinit/wfcrot:       0.45 MB

     Estimated static dynamical RAM per process >       3.22 MB

     Estimated max dynamical RAM per process >       4.13 MB

     Estimated total dynamical RAM >      33.08 MB

     The potential is recalculated from file :
     ./tmp_16/BN2L_AA1_PBE_vdW.save/charge-density

     Starting wfcs are   16 randomized atomic wfcs +    4 random wfcs

     Band Structure Calculation
     Davidson diagonalization with overlap

     Computing kpt #:     1  of   256
     total cpu time spent up to now is        0.8 secs

     Computing kpt #:     2  of   256
     total cpu time spent up to now is        0.9 secs

     Computing kpt #:     3  of   256
     total cpu time spent up to now is        1.1 secs

     Computing kpt #:     4  of   256
     total cpu time spent up to now is        1.3 secs

     Computing kpt #:     5  of   256
     total cpu time spent up to now is        1.6 secs

     Computing kpt #:     6  of   256
     total cpu time spent up to now is        1.9 secs

     Computing kpt #:     7  of   256
     total cpu time spent up to now is        2.0 secs

     Computing kpt #:     8  of   256
     total cpu time spent up to now is        2.2 secs

     Computing kpt #:     9  of   256
     total cpu time spent up to now is        2.5 secs

     Computing kpt #:    10  of   256
     total cpu time spent up to now is        2.7 secs

     Computing kpt #:    11  of   256
     total cpu time spent up to now is        2.9 secs

     Computing kpt #:    12  of   256
     total cpu time spent up to now is        3.1 secs

     Computing kpt #:    13  of   256
     total cpu time spent up to now is        3.3 secs

     Computing kpt #:    14  of   256
     total cpu time spent up to now is        3.5 secs

     Computing kpt #:    15  of   256
     total cpu time spent up to now is        3.8 secs

     Computing kpt #:    16  of   256
     total cpu time spent up to now is        3.9 secs

     Computing kpt #:    17  of   256
     total cpu time spent up to now is        4.1 secs

     Computing kpt #:    18  of   256
     total cpu time spent up to now is        4.3 secs

     Computing kpt #:    19  of   256
     total cpu time spent up to now is        4.6 secs

     Computing kpt #:    20  of   256
     total cpu time spent up to now is        4.8 secs

     Computing kpt #:    21  of   256
     total cpu time spent up to now is        5.1 secs

     Computing kpt #:    22  of   256
     total cpu time spent up to now is        5.3 secs

     Computing kpt #:    23  of   256
     total cpu time spent up to now is        5.5 secs

     Computing kpt #:    24  of   256
     total cpu time spent up to now is        5.8 secs

     Computing kpt #:    25  of   256
     total cpu time spent up to now is        6.0 secs

     Computing kpt #:    26  of   256
     total cpu time spent up to now is        6.2 secs

     Computing kpt #:    27  of   256
     total cpu time spent up to now is        6.4 secs

     Computing kpt #:    28  of   256
     total cpu time spent up to now is        6.7 secs

     Computing kpt #:    29  of   256
     total cpu time spent up to now is        6.9 secs

     Computing kpt #:    30  of   256
     total cpu time spent up to now is        7.1 secs

     Computing kpt #:    31  of   256
     total cpu time spent up to now is        7.4 secs

     Computing kpt #:    32  of   256
     total cpu time spent up to now is        7.5 secs

     Computing kpt #:    33  of   256
     total cpu time spent up to now is        7.7 secs

     Computing kpt #:    34  of   256
     total cpu time spent up to now is        7.9 secs

     Computing kpt #:    35  of   256
     total cpu time spent up to now is        8.2 secs

     Computing kpt #:    36  of   256
     total cpu time spent up to now is        8.4 secs

     Computing kpt #:    37  of   256
     total cpu time spent up to now is        8.6 secs

     Computing kpt #:    38  of   256
     total cpu time spent up to now is        8.8 secs

     Computing kpt #:    39  of   256
     total cpu time spent up to now is        9.0 secs

     Computing kpt #:    40  of   256
     total cpu time spent up to now is        9.2 secs

     Computing kpt #:    41  of   256
     total cpu time spent up to now is        9.4 secs

     Computing kpt #:    42  of   256
     total cpu time spent up to now is        9.7 secs

     Computing kpt #:    43  of   256
     total cpu time spent up to now is        9.9 secs

     Computing kpt #:    44  of   256
     total cpu time spent up to now is       10.1 secs

     Computing kpt #:    45  of   256
     total cpu time spent up to now is       10.4 secs

     Computing kpt #:    46  of   256
     total cpu time spent up to now is       10.6 secs

     Computing kpt #:    47  of   256
     total cpu time spent up to now is       10.8 secs

     Computing kpt #:    48  of   256
     total cpu time spent up to now is       11.1 secs

     Computing kpt #:    49  of   256
     total cpu time spent up to now is       11.4 secs

     Computing kpt #:    50  of   256
     total cpu time spent up to now is       11.6 secs

     Computing kpt #:    51  of   256
     total cpu time spent up to now is       11.9 secs

     Computing kpt #:    52  of   256
     total cpu time spent up to now is       12.0 secs

     Computing kpt #:    53  of   256
     total cpu time spent up to now is       12.2 secs

     Computing kpt #:    54  of   256
     total cpu time spent up to now is       12.4 secs

     Computing kpt #:    55  of   256
     total cpu time spent up to now is       12.6 secs

     Computing kpt #:    56  of   256
     total cpu time spent up to now is       12.8 secs

     Computing kpt #:    57  of   256
     total cpu time spent up to now is       13.0 secs

     Computing kpt #:    58  of   256
     total cpu time spent up to now is       13.2 secs

     Computing kpt #:    59  of   256
     total cpu time spent up to now is       13.4 secs

     Computing kpt #:    60  of   256
     total cpu time spent up to now is       13.6 secs

     Computing kpt #:    61  of   256
     total cpu time spent up to now is       13.8 secs

     Computing kpt #:    62  of   256
     total cpu time spent up to now is       14.1 secs

     Computing kpt #:    63  of   256
     total cpu time spent up to now is       14.3 secs

     Computing kpt #:    64  of   256
     total cpu time spent up to now is       14.5 secs

     Computing kpt #:    65  of   256
     total cpu time spent up to now is       14.7 secs

     Computing kpt #:    66  of   256
     total cpu time spent up to now is       15.0 secs

     Computing kpt #:    67  of   256
     total cpu time spent up to now is       15.1 secs

     Computing kpt #:    68  of   256
     total cpu time spent up to now is       15.3 secs

     Computing kpt #:    69  of   256
     total cpu time spent up to now is       15.5 secs

     Computing kpt #:    70  of   256
     total cpu time spent up to now is       15.7 secs

     Computing kpt #:    71  of   256
     total cpu time spent up to now is       16.0 secs

     Computing kpt #:    72  of   256
     total cpu time spent up to now is       16.2 secs

     Computing kpt #:    73  of   256
     total cpu time spent up to now is       16.4 secs

     Computing kpt #:    74  of   256
     total cpu time spent up to now is       16.5 secs

     Computing kpt #:    75  of   256
     total cpu time spent up to now is       16.7 secs

     Computing kpt #:    76  of   256
     total cpu time spent up to now is       16.9 secs

     Computing kpt #:    77  of   256
     total cpu time spent up to now is       17.2 secs

     Computing kpt #:    78  of   256
     total cpu time spent up to now is       17.5 secs

     Computing kpt #:    79  of   256
     total cpu time spent up to now is       17.7 secs

     Computing kpt #:    80  of   256
     total cpu time spent up to now is       17.9 secs

     Computing kpt #:    81  of   256
     total cpu time spent up to now is       18.2 secs

     Computing kpt #:    82  of   256
     total cpu time spent up to now is       18.4 secs

     Computing kpt #:    83  of   256
     total cpu time spent up to now is       18.7 secs

     Computing kpt #:    84  of   256
     total cpu time spent up to now is       18.9 secs

     Computing kpt #:    85  of   256
     total cpu time spent up to now is       19.1 secs

     Computing kpt #:    86  of   256
     total cpu time spent up to now is       19.4 secs

     Computing kpt #:    87  of   256
     total cpu time spent up to now is       19.6 secs

     Computing kpt #:    88  of   256
     total cpu time spent up to now is       19.8 secs

     Computing kpt #:    89  of   256
     total cpu time spent up to now is       20.1 secs

     Computing kpt #:    90  of   256
     total cpu time spent up to now is       20.3 secs

     Computing kpt #:    91  of   256
     total cpu time spent up to now is       20.6 secs

     Computing kpt #:    92  of   256
     total cpu time spent up to now is       20.8 secs

     Computing kpt #:    93  of   256
     total cpu time spent up to now is       21.1 secs

     Computing kpt #:    94  of   256
     total cpu time spent up to now is       21.3 secs

     Computing kpt #:    95  of   256
     total cpu time spent up to now is       21.5 secs

     Computing kpt #:    96  of   256
     total cpu time spent up to now is       21.7 secs

     Computing kpt #:    97  of   256
     total cpu time spent up to now is       21.9 secs

     Computing kpt #:    98  of   256
     total cpu time spent up to now is       22.1 secs

     Computing kpt #:    99  of   256
     total cpu time spent up to now is       22.3 secs

     Computing kpt #:   100  of   256
     total cpu time spent up to now is       22.5 secs

     Computing kpt #:   101  of   256
     total cpu time spent up to now is       22.7 secs

     Computing kpt #:   102  of   256
     total cpu time spent up to now is       23.0 secs

     Computing kpt #:   103  of   256
     total cpu time spent up to now is       23.2 secs

     Computing kpt #:   104  of   256
     total cpu time spent up to now is       23.4 secs

     Computing kpt #:   105  of   256
     total cpu time spent up to now is       23.6 secs

     Computing kpt #:   106  of   256
     total cpu time spent up to now is       23.8 secs

     Computing kpt #:   107  of   256
     total cpu time spent up to now is       24.0 secs

     Computing kpt #:   108  of   256
     total cpu time spent up to now is       24.2 secs

     Computing kpt #:   109  of   256
     total cpu time spent up to now is       24.4 secs

     Computing kpt #:   110  of   256
     total cpu time spent up to now is       24.6 secs

     Computing kpt #:   111  of   256
     total cpu time spent up to now is       24.7 secs

     Computing kpt #:   112  of   256
     total cpu time spent up to now is       25.0 secs

     Computing kpt #:   113  of   256
     total cpu time spent up to now is       25.2 secs

     Computing kpt #:   114  of   256
     total cpu time spent up to now is       25.4 secs

     Computing kpt #:   115  of   256
     total cpu time spent up to now is       25.6 secs

     Computing kpt #:   116  of   256
     total cpu time spent up to now is       25.9 secs

     Computing kpt #:   117  of   256
     total cpu time spent up to now is       26.1 secs

     Computing kpt #:   118  of   256
     total cpu time spent up to now is       26.3 secs

     Computing kpt #:   119  of   256
     total cpu time spent up to now is       26.5 secs

     Computing kpt #:   120  of   256
     total cpu time spent up to now is       26.7 secs

     Computing kpt #:   121  of   256
     total cpu time spent up to now is       27.0 secs

     Computing kpt #:   122  of   256
     total cpu time spent up to now is       27.2 secs

     Computing kpt #:   123  of   256
     total cpu time spent up to now is       27.4 secs

     Computing kpt #:   124  of   256
     total cpu time spent up to now is       27.6 secs

     Computing kpt #:   125  of   256
     total cpu time spent up to now is       27.8 secs

     Computing kpt #:   126  of   256
     total cpu time spent up to now is       28.0 secs

     Computing kpt #:   127  of   256
     total cpu time spent up to now is       28.3 secs

     Computing kpt #:   128  of   256
     total cpu time spent up to now is       28.5 secs

     Computing kpt #:   129  of   256
     total cpu time spent up to now is       28.7 secs

     Computing kpt #:   130  of   256
     total cpu time spent up to now is       29.0 secs

     Computing kpt #:   131  of   256
     total cpu time spent up to now is       29.1 secs

     Computing kpt #:   132  of   256
     total cpu time spent up to now is       29.3 secs

     Computing kpt #:   133  of   256
     total cpu time spent up to now is       29.5 secs

     Computing kpt #:   134  of   256
     total cpu time spent up to now is       29.7 secs

     Computing kpt #:   135  of   256
     total cpu time spent up to now is       29.9 secs

     Computing kpt #:   136  of   256
     total cpu time spent up to now is       30.1 secs

     Computing kpt #:   137  of   256
     total cpu time spent up to now is       30.3 secs

     Computing kpt #:   138  of   256
     total cpu time spent up to now is       30.6 secs

     Computing kpt #:   139  of   256
     total cpu time spent up to now is       30.7 secs

     Computing kpt #:   140  of   256
     total cpu time spent up to now is       30.9 secs

     Computing kpt #:   141  of   256
     total cpu time spent up to now is       31.2 secs

     Computing kpt #:   142  of   256
     total cpu time spent up to now is       31.4 secs

     Computing kpt #:   143  of   256
     total cpu time spent up to now is       31.6 secs

     Computing kpt #:   144  of   256
     total cpu time spent up to now is       31.8 secs

     Computing kpt #:   145  of   256
     total cpu time spent up to now is       32.0 secs

     Computing kpt #:   146  of   256
     total cpu time spent up to now is       32.2 secs

     Computing kpt #:   147  of   256
     total cpu time spent up to now is       32.4 secs

     Computing kpt #:   148  of   256
     total cpu time spent up to now is       32.6 secs

     Computing kpt #:   149  of   256
     total cpu time spent up to now is       32.8 secs

     Computing kpt #:   150  of   256
     total cpu time spent up to now is       33.0 secs

     Computing kpt #:   151  of   256
     total cpu time spent up to now is       33.2 secs

     Computing kpt #:   152  of   256
     total cpu time spent up to now is       33.4 secs

     Computing kpt #:   153  of   256
     total cpu time spent up to now is       33.6 secs

     Computing kpt #:   154  of   256
     total cpu time spent up to now is       33.8 secs

     Computing kpt #:   155  of   256
     total cpu time spent up to now is       34.0 secs

     Computing kpt #:   156  of   256
     total cpu time spent up to now is       34.2 secs

     Computing kpt #:   157  of   256
     total cpu time spent up to now is       34.5 secs

     Computing kpt #:   158  of   256
     total cpu time spent up to now is       34.7 secs

     Computing kpt #:   159  of   256
     total cpu time spent up to now is       34.9 secs

     Computing kpt #:   160  of   256
     total cpu time spent up to now is       35.1 secs

     Computing kpt #:   161  of   256
     total cpu time spent up to now is       35.3 secs

     Computing kpt #:   162  of   256
     total cpu time spent up to now is       35.5 secs

     Computing kpt #:   163  of   256
     total cpu time spent up to now is       35.7 secs

     Computing kpt #:   164  of   256
     total cpu time spent up to now is       35.9 secs

     Computing kpt #:   165  of   256
     total cpu time spent up to now is       36.0 secs

     Computing kpt #:   166  of   256
     total cpu time spent up to now is       36.3 secs

     Computing kpt #:   167  of   256
     total cpu time spent up to now is       36.5 secs

     Computing kpt #:   168  of   256
     total cpu time spent up to now is       36.7 secs

     Computing kpt #:   169  of   256
     total cpu time spent up to now is       36.9 secs

     Computing kpt #:   170  of   256
     total cpu time spent up to now is       37.1 secs

     Computing kpt #:   171  of   256
     total cpu time spent up to now is       37.4 secs

     Computing kpt #:   172  of   256
     total cpu time spent up to now is       37.6 secs

     Computing kpt #:   173  of   256
     total cpu time spent up to now is       37.9 secs

     Computing kpt #:   174  of   256
     total cpu time spent up to now is       38.1 secs

     Computing kpt #:   175  of   256
     total cpu time spent up to now is       38.3 secs

     Computing kpt #:   176  of   256
     total cpu time spent up to now is       38.5 secs

     Computing kpt #:   177  of   256
     total cpu time spent up to now is       38.8 secs

     Computing kpt #:   178  of   256
     total cpu time spent up to now is       39.0 secs

     Computing kpt #:   179  of   256
     total cpu time spent up to now is       39.2 secs

     Computing kpt #:   180  of   256
     total cpu time spent up to now is       39.5 secs

     Computing kpt #:   181  of   256
     total cpu time spent up to now is       39.7 secs

     Computing kpt #:   182  of   256
     total cpu time spent up to now is       39.9 secs

     Computing kpt #:   183  of   256
     total cpu time spent up to now is       40.2 secs

     Computing kpt #:   184  of   256
     total cpu time spent up to now is       40.4 secs

     Computing kpt #:   185  of   256
     total cpu time spent up to now is       40.6 secs

     Computing kpt #:   186  of   256
     total cpu time spent up to now is       40.8 secs

     Computing kpt #:   187  of   256
     total cpu time spent up to now is       41.0 secs

     Computing kpt #:   188  of   256
     total cpu time spent up to now is       41.3 secs

     Computing kpt #:   189  of   256
     total cpu time spent up to now is       41.5 secs

     Computing kpt #:   190  of   256
     total cpu time spent up to now is       41.7 secs

     Computing kpt #:   191  of   256
     total cpu time spent up to now is       41.9 secs

     Computing kpt #:   192  of   256
     total cpu time spent up to now is       42.2 secs

     Computing kpt #:   193  of   256
     total cpu time spent up to now is       42.4 secs

     Computing kpt #:   194  of   256
     total cpu time spent up to now is       42.6 secs

     Computing kpt #:   195  of   256
     total cpu time spent up to now is       42.9 secs

     Computing kpt #:   196  of   256
     total cpu time spent up to now is       43.1 secs

     Computing kpt #:   197  of   256
     total cpu time spent up to now is       43.4 secs

     Computing kpt #:   198  of   256
     total cpu time spent up to now is       43.6 secs

     Computing kpt #:   199  of   256
     total cpu time spent up to now is       43.8 secs

     Computing kpt #:   200  of   256
     total cpu time spent up to now is       44.0 secs

     Computing kpt #:   201  of   256
     total cpu time spent up to now is       44.2 secs

     Computing kpt #:   202  of   256
     total cpu time spent up to now is       44.4 secs

     Computing kpt #:   203  of   256
     total cpu time spent up to now is       44.7 secs

     Computing kpt #:   204  of   256
     total cpu time spent up to now is       44.8 secs

     Computing kpt #:   205  of   256
     total cpu time spent up to now is       45.1 secs

     Computing kpt #:   206  of   256
     total cpu time spent up to now is       45.3 secs

     Computing kpt #:   207  of   256
     total cpu time spent up to now is       45.4 secs

     Computing kpt #:   208  of   256
     total cpu time spent up to now is       45.7 secs

     Computing kpt #:   209  of   256
     total cpu time spent up to now is       45.9 secs

     Computing kpt #:   210  of   256
     total cpu time spent up to now is       46.1 secs

     Computing kpt #:   211  of   256
     total cpu time spent up to now is       46.4 secs

     Computing kpt #:   212  of   256
     total cpu time spent up to now is       46.6 secs

     Computing kpt #:   213  of   256
     total cpu time spent up to now is       46.9 secs

     Computing kpt #:   214  of   256
     total cpu time spent up to now is       47.1 secs

     Computing kpt #:   215  of   256
     total cpu time spent up to now is       47.3 secs

     Computing kpt #:   216  of   256
     total cpu time spent up to now is       47.4 secs

     Computing kpt #:   217  of   256
     total cpu time spent up to now is       47.6 secs

     Computing kpt #:   218  of   256
     total cpu time spent up to now is       47.9 secs

     Computing kpt #:   219  of   256
     total cpu time spent up to now is       48.1 secs

     Computing kpt #:   220  of   256
     total cpu time spent up to now is       48.3 secs

     Computing kpt #:   221  of   256
     total cpu time spent up to now is       48.5 secs

     Computing kpt #:   222  of   256
     total cpu time spent up to now is       48.6 secs

     Computing kpt #:   223  of   256
     total cpu time spent up to now is       48.9 secs

     Computing kpt #:   224  of   256
     total cpu time spent up to now is       49.1 secs

     Computing kpt #:   225  of   256
     total cpu time spent up to now is       49.3 secs

     Computing kpt #:   226  of   256
     total cpu time spent up to now is       49.5 secs

     Computing kpt #:   227  of   256
     total cpu time spent up to now is       49.7 secs

     Computing kpt #:   228  of   256
     total cpu time spent up to now is       50.0 secs

     Computing kpt #:   229  of   256
     total cpu time spent up to now is       50.2 secs

     Computing kpt #:   230  of   256
     total cpu time spent up to now is       50.4 secs

     Computing kpt #:   231  of   256
     total cpu time spent up to now is       50.6 secs

     Computing kpt #:   232  of   256
     total cpu time spent up to now is       50.8 secs

     Computing kpt #:   233  of   256
     total cpu time spent up to now is       51.0 secs

     Computing kpt #:   234  of   256
     total cpu time spent up to now is       51.2 secs

     Computing kpt #:   235  of   256
     total cpu time spent up to now is       51.4 secs

     Computing kpt #:   236  of   256
     total cpu time spent up to now is       51.6 secs

     Computing kpt #:   237  of   256
     total cpu time spent up to now is       51.8 secs

     Computing kpt #:   238  of   256
     total cpu time spent up to now is       52.0 secs

     Computing kpt #:   239  of   256
     total cpu time spent up to now is       52.3 secs

     Computing kpt #:   240  of   256
     total cpu time spent up to now is       52.5 secs

     Computing kpt #:   241  of   256
     total cpu time spent up to now is       52.7 secs

     Computing kpt #:   242  of   256
     total cpu time spent up to now is       52.9 secs

     Computing kpt #:   243  of   256
     total cpu time spent up to now is       53.1 secs

     Computing kpt #:   244  of   256
     total cpu time spent up to now is       53.3 secs

     Computing kpt #:   245  of   256
     total cpu time spent up to now is       53.6 secs

     Computing kpt #:   246  of   256
     total cpu time spent up to now is       53.8 secs

     Computing kpt #:   247  of   256
     total cpu time spent up to now is       54.1 secs

     Computing kpt #:   248  of   256
     total cpu time spent up to now is       54.3 secs

     Computing kpt #:   249  of   256
     total cpu time spent up to now is       54.5 secs

     Computing kpt #:   250  of   256
     total cpu time spent up to now is       54.7 secs

     Computing kpt #:   251  of   256
     total cpu time spent up to now is       55.0 secs

     Computing kpt #:   252  of   256
     total cpu time spent up to now is       55.2 secs

     Computing kpt #:   253  of   256
     total cpu time spent up to now is       55.4 secs

     Computing kpt #:   254  of   256
     total cpu time spent up to now is       55.6 secs

     Computing kpt #:   255  of   256
     total cpu time spent up to now is       55.8 secs

     Computing kpt #:   256  of   256
     total cpu time spent up to now is       56.0 secs

     ethr =  5.00E-06,  avg # of iterations = 25.4

     total cpu time spent up to now is       56.0 secs

     End of band structure calculation

          k = 0.0000 0.0000 0.0000 (  5775 PWs)   bands (ev):

   -20.1558 -20.0003  -8.1842  -7.1029  -3.8551  -3.8550  -3.8349  -3.8349
     2.4301   2.9372   3.6165   4.7506   4.9671   6.7089   7.3338   9.0736
     9.0736   9.1413   9.1413   9.1781

     occupation numbers 
     1.0000   1.0000   1.0000   1.0000   1.0000   1.0000   1.0000   1.0000
     0.0000   0.0000   0.0000   0.0000   0.0000   0.0000   0.0000   0.0000
     0.0000   0.0000   0.0000   0.0000

          k = 0.0000 0.0722 0.0000 (  5791 PWs)   bands (ev):

   -20.0806 -19.9263  -8.0819  -7.0058  -4.1731  -4.1554  -4.0037  -3.9833
     2.5612   3.0575   3.7422   4.8717   5.0864   6.7875   7.4491   9.0037
     9.0714   9.2147   9.4081   9.4745

     occupation numbers 
     1.0000   1.0000   1.0000   1.0000   1.0000   1.0000   1.0000   1.0000
     0.0000   0.0000   0.0000   0.0000   0.0000   0.0000   0.0000   0.0000
     0.0000   0.0000   0.0000   0.0000

          k = 0.0000 0.1443 0.0000 (  5792 PWs)   bands (ev):

   -19.8566 -19.7065  -7.7776  -6.7181  -5.0330  -5.0152  -4.3971  -4.3728
     2.9397   3.4123   4.1152   5.2279   5.4178   6.9810   7.7418   8.8116
     8.9103   9.2906   9.6376  10.3520

     occupation numbers 
     1.0000   1.0000   1.0000   1.0000   1.0000   1.0000   1.0000   1.0000
     0.0000   0.0000   0.0000   0.0000   0.0000   0.0000   0.0000   0.0000
     0.0000   0.0000   0.0000   0.0000

          k = 0.0000 0.2165 0.0000 (  5790 PWs)   bands (ev):

   -19.4914 -19.3485  -7.2806  -6.3220  -6.2109  -6.1593  -4.9213  -4.8937
     3.5423   3.9831   4.7275   5.7932   5.8610   7.1396   7.9309   8.3651
     8.7005   9.2591   9.4208  11.5514

     occupation numbers 
     1.0000   1.0000   1.0000   1.0000   1.0000   1.0000   1.0000   1.0000
     0.0000   0.0000   0.0000   0.0000   0.0000   0.0000   0.0000   0.0000
     0.0000   0.0000   0.0000   0.0000

          k = 0.0000 0.2887 0.0000 (  5810 PWs)   bands (ev):

   -19.0008 -18.8682  -7.5975  -7.5672  -6.5874  -5.6031  -5.4669  -5.4360
     4.3498   4.6959   5.5507   5.9643   6.3697   7.2381   7.3126   8.1344
     8.6702   9.7544   9.7628  12.4056

     occupation numbers 
     1.0000   1.0000   1.0000   1.0000   1.0000   1.0000   1.0000   1.0000
     0.0000   0.0000   0.0000   0.0000   0.0000   0.0000   0.0000   0.0000
     0.0000   0.0000   0.0000   0.0000

          k = 0.0000 0.3608 0.0000 (  5836 PWs)   bands (ev):

   -18.4150 -18.2971  -8.9433  -8.9020  -5.9526  -5.9199  -5.7640  -4.8456
     4.7591   5.1284   5.3513   6.3418   6.6610   7.5920   7.7602   8.2820
     9.0166  10.4187  10.7150  13.1130

     occupation numbers 
     1.0000   1.0000   1.0000   1.0000   1.0000   1.0000   1.0000   1.0000
     0.0000   0.0000   0.0000   0.0000   0.0000   0.0000   0.0000   0.0000
     0.0000   0.0000   0.0000   0.0000

          k = 0.0000 0.4330 0.0000 (  5866 PWs)   bands (ev):

   -17.7955 -17.6991 -10.1436 -10.0981  -6.3282  -6.2946  -4.8565  -4.0441
     3.5529   4.0900   6.3482   7.1365   7.8135   7.9168   8.4312   9.3247
     9.8546  11.3242  11.8824  13.5374

     occupation numbers 
     1.0000   1.0000   1.0000   1.0000   1.0000   1.0000   1.0000   1.0000
     0.0000   0.0000   0.0000   0.0000   0.0000   0.0000   0.0000   0.0000
     0.0000   0.0000   0.0000   0.0000

          k = 0.0000 0.5052 0.0000 (  5862 PWs)   bands (ev):

   -17.2672 -17.2024 -11.0229 -10.9817  -6.5638  -6.5294  -4.0285  -3.3756
     2.4635   3.1257   7.0065   7.3815   8.9063   9.0590   9.7626  10.7769
    10.9327  12.0783  12.2085  12.8991

     occupation numbers 
     1.0000   1.0000   1.0000   1.0000   1.0000   1.0000   1.0000   1.0000
     0.0000   0.0000   0.0000   0.0000   0.0000   0.0000   0.0000   0.0000
     0.0000   0.0000   0.0000   0.0000

          k = 0.0000-0.5774 0.0000 (  5820 PWs)   bands (ev):

   -17.0408 -17.0026 -11.3569 -11.3228  -6.6440  -6.6092  -3.6445  -3.1103
     2.0155   2.7175   7.1732   7.3892  10.1406  10.4992  10.6385  10.6853
    11.4919  11.5928  12.0391  12.3508

     occupation numbers 
     1.0000   1.0000   1.0000   1.0000   1.0000   1.0000   1.0000   1.0000
     0.0000   0.0000   0.0000   0.0000   0.0000   0.0000   0.0000   0.0000
     0.0000   0.0000   0.0000   0.0000

          k = 0.0000-0.5052 0.0000 (  5862 PWs)   bands (ev):

   -17.2672 -17.2024 -11.0229 -10.9817  -6.5638  -6.5294  -4.0285  -3.3756
     2.4635   3.1257   7.0065   7.3815   8.9063   9.0590   9.7626  10.7769
    10.9327  12.0782  12.2086  12.8991

     occupation numbers 
     1.0000   1.0000   1.0000   1.0000   1.0000   1.0000   1.0000   1.0000
     0.0000   0.0000   0.0000   0.0000   0.0000   0.0000   0.0000   0.0000
     0.0000   0.0000   0.0000   0.0000

          k = 0.0000-0.4330 0.0000 (  5866 PWs)   bands (ev):

   -17.7955 -17.6991 -10.1436 -10.0981  -6.3282  -6.2946  -4.8565  -4.0441
     3.5529   4.0900   6.3482   7.1365   7.8135   7.9168   8.4312   9.3247
     9.8546  11.3242  11.8824  13.5374

     occupation numbers 
     1.0000   1.0000   1.0000   1.0000   1.0000   1.0000   1.0000   1.0000
     0.0000   0.0000   0.0000   0.0000   0.0000   0.0000   0.0000   0.0000
     0.0000   0.0000   0.0000   0.0000

          k = 0.0000-0.3608 0.0000 (  5836 PWs)   bands (ev):

   -18.4150 -18.2971  -8.9433  -8.9020  -5.9526  -5.9199  -5.7640  -4.8456
     4.7591   5.1284   5.3513   6.3418   6.6610   7.5920   7.7602   8.2820
     9.0166  10.4187  10.7150  13.1141

     occupation numbers 
     1.0000   1.0000   1.0000   1.0000   1.0000   1.0000   1.0000   1.0000
     0.0000   0.0000   0.0000   0.0000   0.0000   0.0000   0.0000   0.0000
     0.0000   0.0000   0.0000   0.0000

          k = 0.0000-0.2887 0.0000 (  5810 PWs)   bands (ev):

   -19.0008 -18.8682  -7.5975  -7.5672  -6.5874  -5.6031  -5.4669  -5.4360
     4.3498   4.6959   5.5507   5.9643   6.3697   7.2381   7.3126   8.1344
     8.6702   9.7544   9.7628  12.4082

     occupation numbers 
     1.0000   1.0000   1.0000   1.0000   1.0000   1.0000   1.0000   1.0000
     0.0000   0.0000   0.0000   0.0000   0.0000   0.0000   0.0000   0.0000
     0.0000   0.0000   0.0000   0.0000

          k = 0.0000-0.2165 0.0000 (  5790 PWs)   bands (ev):

   -19.4914 -19.3485  -7.2806  -6.3220  -6.2109  -6.1593  -4.9213  -4.8937
     3.5423   3.9831   4.7275   5.7932   5.8610   7.1396   7.9309   8.3651
     8.7004   9.2590   9.4207  11.5515

     occupation numbers 
     1.0000   1.0000   1.0000   1.0000   1.0000   1.0000   1.0000   1.0000
     0.0000   0.0000   0.0000   0.0000   0.0000   0.0000   0.0000   0.0000
     0.0000   0.0000   0.0000   0.0000

          k = 0.0000-0.1443 0.0000 (  5792 PWs)   bands (ev):

   -19.8566 -19.7065  -7.7776  -6.7181  -5.0330  -5.0152  -4.3971  -4.3728
     2.9397   3.4123   4.1152   5.2279   5.4178   6.9810   7.7418   8.8116
     8.9103   9.2905   9.6376  10.3520

     occupation numbers 
     1.0000   1.0000   1.0000   1.0000   1.0000   1.0000   1.0000   1.0000
     0.0000   0.0000   0.0000   0.0000   0.0000   0.0000   0.0000   0.0000
     0.0000   0.0000   0.0000   0.0000

          k = 0.0000-0.0722 0.0000 (  5791 PWs)   bands (ev):

   -20.0806 -19.9263  -8.0819  -7.0058  -4.1731  -4.1554  -4.0037  -3.9833
     2.5612   3.0575   3.7422   4.8717   5.0864   6.7875   7.4492   9.0038
     9.0714   9.2147   9.4081   9.4745

     occupation numbers 
     1.0000   1.0000   1.0000   1.0000   1.0000   1.0000   1.0000   1.0000
     0.0000   0.0000   0.0000   0.0000   0.0000   0.0000   0.0000   0.0000
     0.0000   0.0000   0.0000   0.0000

          k = 0.0625 0.0361 0.0000 (  5791 PWs)   bands (ev):

   -20.0806 -19.9263  -8.0819  -7.0058  -4.1731  -4.1554  -4.0037  -3.9833
     2.5612   3.0575   3.7422   4.8717   5.0864   6.7875   7.4492   9.0037
     9.0714   9.2147   9.4081   9.4745

     occupation numbers 
     1.0000   1.0000   1.0000   1.0000   1.0000   1.0000   1.0000   1.0000
     0.0000   0.0000   0.0000   0.0000   0.0000   0.0000   0.0000   0.0000
     0.0000   0.0000   0.0000   0.0000

          k = 0.0625 0.1083 0.0000 (  5767 PWs)   bands (ev):

   -19.9308 -19.7792  -7.8783  -6.8131  -4.7356  -4.7222  -4.2974  -4.2762
     2.8162   3.2952   3.9917   5.1107   5.3135   6.9248   7.6621   8.9817
     9.0627   9.2021   9.6774   9.9695

     occupation numbers 
     1.0000   1.0000   1.0000   1.0000   1.0000   1.0000   1.0000   1.0000
     0.0000   0.0000   0.0000   0.0000   0.0000   0.0000   0.0000   0.0000
     0.0000   0.0000   0.0000   0.0000

          k = 0.0625 0.1804 0.0000 (  5774 PWs)   bands (ev):

   -19.6360 -19.4902  -7.4768  -6.4380  -5.7144  -5.7020  -4.8052  -4.7805
     3.3084   3.7598   4.4854   5.5752   5.7146   7.1044   7.9584   8.8010
     8.9477   9.2488   9.3166  10.5654

     occupation numbers 
     1.0000   1.0000   1.0000   1.0000   1.0000   1.0000   1.0000   1.0000
     0.0000   0.0000   0.0000   0.0000   0.0000   0.0000   0.0000   0.0000
     0.0000   0.0000   0.0000   0.0000

          k = 0.0625 0.2526 0.0000 (  5782 PWs)   bands (ev):

   -19.2073 -19.0702  -6.9965  -6.9656  -6.8238  -5.8688  -5.3816  -5.3520
     4.0191   4.4161   5.2134   6.0468   6.1969   7.1973   7.5885   8.4654
     8.8563   9.4716   9.5786  11.5587

     occupation numbers 
     1.0000   1.0000   1.0000   1.0000   1.0000   1.0000   1.0000   1.0000
     0.0000   0.0000   0.0000   0.0000   0.0000   0.0000   0.0000   0.0000
     0.0000   0.0000   0.0000   0.0000

          k = 0.0625 0.3248 0.0000 (  5827 PWs)   bands (ev):

   -18.6666 -18.5418  -8.2904  -8.2557  -6.1240  -5.9247  -5.8917  -5.1708
     4.9189   4.9918   5.5584   6.2090   6.3006   7.4434   7.6126   8.4010
     9.0027  10.0934  10.2627  12.6459

     occupation numbers 
[...]

          k =-0.1875-0.4691 0.0000 (  5851 PWs)   bands (ev):

   -17.1601 -17.0889 -10.3747 -10.3382  -8.0179  -7.9798  -3.8797  -3.2212
     2.9242   3.3262   8.0688   8.7531   9.5023  10.0043  10.1516  10.6402
    10.8548  11.6921  12.4848  13.0798

     occupation numbers 
     1.0000   1.0000   1.0000   1.0000   1.0000   1.0000   1.0000   1.0000
     0.0000   0.0000   0.0000   0.0000   0.0000   0.0000   0.0000   0.0000
     0.0000   0.0000   0.0000   0.0000

          k =-0.1875-0.3969 0.0000 (  5851 PWs)   bands (ev):

   -17.7064 -17.6090  -9.5448  -9.5241  -7.5830  -7.5498  -4.7322  -3.9239
     3.9163   4.2223   6.8185   7.5095   8.1484   9.2378   9.2765  10.2861
    10.8138  10.9748  11.5179  12.6969

     occupation numbers 
     1.0000   1.0000   1.0000   1.0000   1.0000   1.0000   1.0000   1.0000
     0.0000   0.0000   0.0000   0.0000   0.0000   0.0000   0.0000   0.0000
     0.0000   0.0000   0.0000   0.0000

          k =-0.1875-0.3248 0.0000 (  5828 PWs)   bands (ev):

   -18.2806 -18.1651  -8.6274  -8.6230  -6.9265  -6.8952  -5.5728  -4.6693
     4.8500   5.1138   5.6991   6.5333   6.9458   8.1360   8.3436  10.1255
    10.3151  10.3379  10.4710  11.8935

     occupation numbers 
     1.0000   1.0000   1.0000   1.0000   1.0000   1.0000   1.0000   1.0000
     0.0000   0.0000   0.0000   0.0000   0.0000   0.0000   0.0000   0.0000
     0.0000   0.0000   0.0000   0.0000

          k =-0.1875-0.2526 0.0000 (  5817 PWs)   bands (ev):

   -18.7959 -18.6678  -7.7668  -7.7493  -6.3098  -6.1199  -6.0940  -5.3367
     4.7325   4.9506   5.7792   6.0186   6.3926   7.3750   7.5687   9.1907
     9.4626   9.9018   9.9453  11.5474

     occupation numbers 
     1.0000   1.0000   1.0000   1.0000   1.0000   1.0000   1.0000   1.0000
     0.0000   0.0000   0.0000   0.0000   0.0000   0.0000   0.0000   0.0000
     0.0000   0.0000   0.0000   0.0000

          k =-0.1875-0.1804 0.0000 (  5782 PWs)   bands (ev):

   -19.2073 -19.0702  -6.9965  -6.9656  -6.8238  -5.8688  -5.3816  -5.3520
     4.0191   4.4161   5.2134   6.0468   6.1969   7.1973   7.5885   8.4654
     8.8563   9.4716   9.5786  11.5591

     occupation numbers 
     1.0000   1.0000   1.0000   1.0000   1.0000   1.0000   1.0000   1.0000
     0.0000   0.0000   0.0000   0.0000   0.0000   0.0000   0.0000   0.0000
     0.0000   0.0000   0.0000   0.0000

          k =-0.1250-0.0722 0.0000 (  5792 PWs)   bands (ev):

   -19.8566 -19.7065  -7.7776  -6.7181  -5.0330  -5.0152  -4.3971  -4.3728
     2.9397   3.4123   4.1152   5.2279   5.4178   6.9810   7.7418   8.8116
     8.9103   9.2905   9.6375  10.3520

     occupation numbers 
     1.0000   1.0000   1.0000   1.0000   1.0000   1.0000   1.0000   1.0000
     0.0000   0.0000   0.0000   0.0000   0.0000   0.0000   0.0000   0.0000
     0.0000   0.0000   0.0000   0.0000

          k =-0.1250 0.0000 0.0000 (  5767 PWs)   bands (ev):

   -19.9308 -19.7792  -7.8783  -6.8131  -4.7356  -4.7222  -4.2974  -4.2761
     2.8162   3.2952   3.9917   5.1107   5.3135   6.9248   7.6621   8.9817
     9.0627   9.2021   9.6774   9.9695

     occupation numbers 
     1.0000   1.0000   1.0000   1.0000   1.0000   1.0000   1.0000   1.0000
     0.0000   0.0000   0.0000   0.0000   0.0000   0.0000   0.0000   0.0000
     0.0000   0.0000   0.0000   0.0000

          k =-0.1250 0.0722 0.0000 (  5792 PWs)   bands (ev):

   -19.8566 -19.7065  -7.7776  -6.7181  -5.0330  -5.0152  -4.3971  -4.3728
     2.9397   3.4123   4.1152   5.2279   5.4178   6.9810   7.7418   8.8116
     8.9103   9.2906   9.6376  10.3519

     occupation numbers 
     1.0000   1.0000   1.0000   1.0000   1.0000   1.0000   1.0000   1.0000
     0.0000   0.0000   0.0000   0.0000   0.0000   0.0000   0.0000   0.0000
     0.0000   0.0000   0.0000   0.0000

          k =-0.1250 0.1443 0.0000 (  5774 PWs)   bands (ev):

   -19.6360 -19.4902  -7.4768  -6.4380  -5.7144  -5.7021  -4.8052  -4.7805
     3.3084   3.7598   4.4854   5.5752   5.7146   7.1044   7.9584   8.8010
     8.9477   9.2488   9.3166  10.5655

     occupation numbers 
     1.0000   1.0000   1.0000   1.0000   1.0000   1.0000   1.0000   1.0000
     0.0000   0.0000   0.0000   0.0000   0.0000   0.0000   0.0000   0.0000
     0.0000   0.0000   0.0000   0.0000

          k =-0.1250 0.2165 0.0000 (  5782 PWs)   bands (ev):

   -19.2771 -19.1384  -6.9974  -6.6603  -6.6207  -5.9561  -5.4501  -5.4228
     3.9124   4.3163   5.0981   6.0532   6.1129   7.1973   7.7202   8.9681
     9.1544   9.3468   9.4674  10.8210

     occupation numbers 
     1.0000   1.0000   1.0000   1.0000   1.0000   1.0000   1.0000   1.0000
     0.0000   0.0000   0.0000   0.0000   0.0000   0.0000   0.0000   0.0000
     0.0000   0.0000   0.0000   0.0000

          k =-0.1250 0.2887 0.0000 (  5817 PWs)   bands (ev):

   -18.7959 -18.6678  -7.7668  -7.7493  -6.3098  -6.1199  -6.0940  -5.3367
     4.7325   4.9506   5.7792   6.0186   6.3926   7.3750   7.5687   9.1907
     9.4626   9.9019   9.9453  11.5477

     occupation numbers 
     1.0000   1.0000   1.0000   1.0000   1.0000   1.0000   1.0000   1.0000
     0.0000   0.0000   0.0000   0.0000   0.0000   0.0000   0.0000   0.0000
     0.0000   0.0000   0.0000   0.0000

          k =-0.1250 0.3608 0.0000 (  5821 PWs)   bands (ev):

   -18.2235 -18.1101  -8.9508  -8.9191  -6.6961  -6.6621  -5.4900  -4.5956
     4.6675   4.9771   5.7722   6.6003   7.0538   8.1914   8.3346   9.1897
     9.7777  10.5691  10.9245  12.5647

     occupation numbers 
     1.0000   1.0000   1.0000   1.0000   1.0000   1.0000   1.0000   1.0000
     0.0000   0.0000   0.0000   0.0000   0.0000   0.0000   0.0000   0.0000
     0.0000   0.0000   0.0000   0.0000

          k =-0.1250 0.4330 0.0000 (  5821 PWs)   bands (ev):

   -17.6218 -17.5299 -10.0478 -10.0076  -7.1182  -7.0813  -4.5997  -3.8163
     3.5213   3.9673   6.9149   7.6690   8.3224   8.8745   9.1157   9.7137
    10.2670  11.2922  12.0448  13.2948

     occupation numbers 
     1.0000   1.0000   1.0000   1.0000   1.0000   1.0000   1.0000   1.0000
     0.0000   0.0000   0.0000   0.0000   0.0000   0.0000   0.0000   0.0000
     0.0000   0.0000   0.0000   0.0000

          k =-0.1250-0.6495 0.0000 (  5830 PWs)   bands (ev):

   -17.1134 -17.0526 -10.8658 -10.8249  -7.3764  -7.3376  -3.7884  -3.1737
     2.5180   3.0722   7.9244   8.5069   9.4509   9.4705  10.1649  10.8121
    11.0993  12.1033  12.3132  12.8031

     occupation numbers 
     1.0000   1.0000   1.0000   1.0000   1.0000   1.0000   1.0000   1.0000
     0.0000   0.0000   0.0000   0.0000   0.0000   0.0000   0.0000   0.0000
     0.0000   0.0000   0.0000   0.0000

          k =-0.1250-0.5774 0.0000 (  5836 PWs)   bands (ev):

   -16.8978 -16.8622 -11.1793 -11.1411  -7.4634  -7.4239  -3.4114  -2.9251
     2.1060   2.6914   8.2806   8.5984  10.3979  10.6609  10.7423  11.0636
    11.6220  11.9392  11.9679  12.6169

     occupation numbers 
     1.0000   1.0000   1.0000   1.0000   1.0000   1.0000   1.0000   1.0000
     0.0000   0.0000   0.0000   0.0000   0.0000   0.0000   0.0000   0.0000
     0.0000   0.0000   0.0000   0.0000

          k =-0.1250-0.5052 0.0000 (  5830 PWs)   bands (ev):

   -17.1134 -17.0526 -10.8658 -10.8249  -7.3764  -7.3376  -3.7885  -3.1737
     2.5180   3.0722   7.9244   8.5069   9.4509   9.4705  10.1649  10.8121
    11.0993  12.1033  12.3132  12.8030

     occupation numbers 
     1.0000   1.0000   1.0000   1.0000   1.0000   1.0000   1.0000   1.0000
     0.0000   0.0000   0.0000   0.0000   0.0000   0.0000   0.0000   0.0000
     0.0000   0.0000   0.0000   0.0000

          k =-0.1250-0.4330 0.0000 (  5821 PWs)   bands (ev):

   -17.6218 -17.5299 -10.0478 -10.0076  -7.1182  -7.0813  -4.5997  -3.8163
     3.5213   3.9673   6.9149   7.6690   8.3224   8.8745   9.1157   9.7137
    10.2670  11.2922  12.0448  13.2963

     occupation numbers 
     1.0000   1.0000   1.0000   1.0000   1.0000   1.0000   1.0000   1.0000
     0.0000   0.0000   0.0000   0.0000   0.0000   0.0000   0.0000   0.0000
     0.0000   0.0000   0.0000   0.0000

          k =-0.1250-0.3608 0.0000 (  5821 PWs)   bands (ev):

   -18.2235 -18.1101  -8.9508  -8.9191  -6.6961  -6.6621  -5.4900  -4.5956
     4.6675   4.9771   5.7722   6.6003   7.0538   8.1914   8.3346   9.1897
     9.7777  10.5691  10.9245  12.5647

     occupation numbers 
     1.0000   1.0000   1.0000   1.0000   1.0000   1.0000   1.0000   1.0000
     0.0000   0.0000   0.0000   0.0000   0.0000   0.0000   0.0000   0.0000
     0.0000   0.0000   0.0000   0.0000

          k =-0.1250-0.2887 0.0000 (  5817 PWs)   bands (ev):

   -18.7959 -18.6678  -7.7668  -7.7493  -6.3098  -6.1199  -6.0940  -5.3367
     4.7325   4.9506   5.7792   6.0186   6.3926   7.3750   7.5687   9.1907
     9.4626   9.9019   9.9453  11.5474

     occupation numbers 
     1.0000   1.0000   1.0000   1.0000   1.0000   1.0000   1.0000   1.0000
     0.0000   0.0000   0.0000   0.0000   0.0000   0.0000   0.0000   0.0000
     0.0000   0.0000   0.0000   0.0000

          k =-0.1250-0.2165 0.0000 (  5782 PWs)   bands (ev):

   -19.2771 -19.1384  -6.9974  -6.6602  -6.6207  -5.9561  -5.4502  -5.4229
     3.9124   4.3163   5.0981   6.0532   6.1129   7.1973   7.7203   8.9681
     9.1544   9.3467   9.4674  10.8210

     occupation numbers 
     1.0000   1.0000   1.0000   1.0000   1.0000   1.0000   1.0000   1.0000
     0.0000   0.0000   0.0000   0.0000   0.0000   0.0000   0.0000   0.0000
     0.0000   0.0000   0.0000   0.0000

          k =-0.1250-0.1443 0.0000 (  5774 PWs)   bands (ev):

   -19.6360 -19.4902  -7.4768  -6.4380  -5.7144  -5.7020  -4.8052  -4.7805
     3.3084   3.7598   4.4854   5.5752   5.7146   7.1044   7.9584   8.8010
     8.9477   9.2488   9.3165  10.5656

     occupation numbers 
     1.0000   1.0000   1.0000   1.0000   1.0000   1.0000   1.0000   1.0000
     0.0000   0.0000   0.0000   0.0000   0.0000   0.0000   0.0000   0.0000
     0.0000   0.0000   0.0000   0.0000

          k =-0.0625-0.0361 0.0000 (  5791 PWs)   bands (ev):

   -20.0806 -19.9263  -8.0819  -7.0058  -4.1731  -4.1554  -4.0037  -3.9833
     2.5612   3.0575   3.7422   4.8716   5.0864   6.7875   7.4491   9.0037
     9.0714   9.2148   9.4081   9.4745

     occupation numbers 
     1.0000   1.0000   1.0000   1.0000   1.0000   1.0000   1.0000   1.0000
     0.0000   0.0000   0.0000   0.0000   0.0000   0.0000   0.0000   0.0000
     0.0000   0.0000   0.0000   0.0000

          k =-0.0625 0.0361 0.0000 (  5791 PWs)   bands (ev):

   -20.0806 -19.9263  -8.0819  -7.0058  -4.1731  -4.1554  -4.0036  -3.9833
     2.5612   3.0575   3.7422   4.8716   5.0864   6.7875   7.4491   9.0038
     9.0714   9.2147   9.4080   9.4745

     occupation numbers 
     1.0000   1.0000   1.0000   1.0000   1.0000   1.0000   1.0000   1.0000
     0.0000   0.0000   0.0000   0.0000   0.0000   0.0000   0.0000   0.0000
     0.0000   0.0000   0.0000   0.0000

          k =-0.0625 0.1083 0.0000 (  5767 PWs)   bands (ev):

   -19.9308 -19.7792  -7.8783  -6.8131  -4.7356  -4.7222  -4.2974  -4.2761
     2.8162   3.2952   3.9917   5.1107   5.3135   6.9248   7.6621   8.9817
     9.0627   9.2020   9.6774   9.9693

     occupation numbers 
     1.0000   1.0000   1.0000   1.0000   1.0000   1.0000   1.0000   1.0000
     0.0000   0.0000   0.0000   0.0000   0.0000   0.0000   0.0000   0.0000
     0.0000   0.0000   0.0000   0.0000

          k =-0.0625 0.1804 0.0000 (  5774 PWs)   bands (ev):

   -19.6360 -19.4902  -7.4768  -6.4380  -5.7144  -5.7020  -4.8052  -4.7805
     3.3084   3.7598   4.4854   5.5752   5.7146   7.1044   7.9584   8.8010
     8.9478   9.2489   9.3166  10.5655

     occupation numbers 
     1.0000   1.0000   1.0000   1.0000   1.0000   1.0000   1.0000   1.0000
     0.0000   0.0000   0.0000   0.0000   0.0000   0.0000   0.0000   0.0000
     0.0000   0.0000   0.0000   0.0000

          k =-0.0625 0.2526 0.0000 (  5782 PWs)   bands (ev):

   -19.2073 -19.0702  -6.9965  -6.9657  -6.8238  -5.8688  -5.3816  -5.3520
     4.0191   4.4161   5.2134   6.0468   6.1969   7.1973   7.5885   8.4654
     8.8563   9.4716   9.5786  11.5592

     occupation numbers 
     1.0000   1.0000   1.0000   1.0000   1.0000   1.0000   1.0000   1.0000
     0.0000   0.0000   0.0000   0.0000   0.0000   0.0000   0.0000   0.0000
     0.0000   0.0000   0.0000   0.0000

          k =-0.0625 0.3248 0.0000 (  5827 PWs)   bands (ev):

   -18.6666 -18.5418  -8.2904  -8.2557  -6.1240  -5.9247  -5.8917  -5.1708
     4.9189   4.9918   5.5584   6.2090   6.3006   7.4434   7.6126   8.4010
     9.0027  10.0934  10.2627  12.6459

     occupation numbers 
     1.0000   1.0000   1.0000   1.0000   1.0000   1.0000   1.0000   1.0000
     0.0000   0.0000   0.0000   0.0000   0.0000   0.0000   0.0000   0.0000
     0.0000   0.0000   0.0000   0.0000

          k =-0.0625 0.3969 0.0000 (  5841 PWs)   bands (ev):

   -18.0569 -17.9498  -9.5545  -9.5118  -6.3722  -6.3379  -5.2461  -4.3811
     4.1758   4.6044   5.9889   6.8245   7.3596   8.0028   8.2436   8.8316
     9.5146  10.8783  11.3437  13.4084

     occupation numbers 
     1.0000   1.0000   1.0000   1.0000   1.0000   1.0000   1.0000   1.0000
     0.0000   0.0000   0.0000   0.0000   0.0000   0.0000   0.0000   0.0000
     0.0000   0.0000   0.0000   0.0000

          k =-0.0625 0.4691 0.0000 (  5854 PWs)   bands (ev):

   -17.4664 -17.3856 -10.6024 -10.5585  -6.6862  -6.6507  -4.3527  -3.6215
     2.9652   3.5493   6.9627   7.6112   8.4889   8.5164   9.1359  10.1088
    10.4588  11.7815  12.4128  13.1474

     occupation numbers 
     1.0000   1.0000   1.0000   1.0000   1.0000   1.0000   1.0000   1.0000
     0.0000   0.0000   0.0000   0.0000   0.0000   0.0000   0.0000   0.0000
     0.0000   0.0000   0.0000   0.0000

          k =-0.0625-0.6134 0.0000 (  5844 PWs)   bands (ev):

   -17.0633 -17.0169 -11.2277 -11.1906  -6.8475  -6.8114  -3.6892  -3.1284
     2.1564   2.8201   7.4300   7.7132   9.6828   9.8932  10.6556  11.1617
    11.3211  11.6691  12.1950  12.6171

     occupation numbers 
     1.0000   1.0000   1.0000   1.0000   1.0000   1.0000   1.0000   1.0000
     0.0000   0.0000   0.0000   0.0000   0.0000   0.0000   0.0000   0.0000
     0.0000   0.0000   0.0000   0.0000

          k =-0.0625-0.5413 0.0000 (  5844 PWs)   bands (ev):

   -17.0633 -17.0169 -11.2277 -11.1906  -6.8475  -6.8114  -3.6892  -3.1284
     2.1564   2.8201   7.4300   7.7132   9.6828   9.8932  10.6556  11.1617
    11.3211  11.6691  12.1950  12.6171

     occupation numbers 
     1.0000   1.0000   1.0000   1.0000   1.0000   1.0000   1.0000   1.0000
     0.0000   0.0000   0.0000   0.0000   0.0000   0.0000   0.0000   0.0000
     0.0000   0.0000   0.0000   0.0000

          k =-0.0625-0.4691 0.0000 (  5854 PWs)   bands (ev):

   -17.4664 -17.3856 -10.6024 -10.5585  -6.6862  -6.6507  -4.3527  -3.6215
     2.9652   3.5493   6.9627   7.6112   8.4889   8.5164   9.1359  10.1087
    10.4588  11.7815  12.4128  13.1472

     occupation numbers 
     1.0000   1.0000   1.0000   1.0000   1.0000   1.0000   1.0000   1.0000
     0.0000   0.0000   0.0000   0.0000   0.0000   0.0000   0.0000   0.0000
     0.0000   0.0000   0.0000   0.0000

          k =-0.0625-0.3969 0.0000 (  5841 PWs)   bands (ev):

   -18.0569 -17.9498  -9.5545  -9.5118  -6.3722  -6.3380  -5.2461  -4.3811
     4.1758   4.6044   5.9889   6.8245   7.3596   8.0028   8.2436   8.8316
     9.5146  10.8783  11.3436  13.4078

     occupation numbers 
     1.0000   1.0000   1.0000   1.0000   1.0000   1.0000   1.0000   1.0000
     0.0000   0.0000   0.0000   0.0000   0.0000   0.0000   0.0000   0.0000
     0.0000   0.0000   0.0000   0.0000

          k =-0.0625-0.3248 0.0000 (  5827 PWs)   bands (ev):

   -18.6666 -18.5418  -8.2904  -8.2557  -6.1240  -5.9247  -5.8917  -5.1708
     4.9189   4.9918   5.5584   6.2090   6.3006   7.4434   7.6126   8.4010
     9.0027  10.0935  10.2627  12.6459

     occupation numbers 
     1.0000   1.0000   1.0000   1.0000   1.0000   1.0000   1.0000   1.0000
     0.0000   0.0000   0.0000   0.0000   0.0000   0.0000   0.0000   0.0000
     0.0000   0.0000   0.0000   0.0000

          k =-0.0625-0.2526 0.0000 (  5782 PWs)   bands (ev):

   -19.2073 -19.0702  -6.9965  -6.9656  -6.8238  -5.8688  -5.3816  -5.3520
     4.0191   4.4161   5.2134   6.0468   6.1969   7.1973   7.5885   8.4654
     8.8563   9.4716   9.5786  11.5590

     occupation numbers 
     1.0000   1.0000   1.0000   1.0000   1.0000   1.0000   1.0000   1.0000
     0.0000   0.0000   0.0000   0.0000   0.0000   0.0000   0.0000   0.0000
     0.0000   0.0000   0.0000   0.0000

          k =-0.0625-0.1804 0.0000 (  5774 PWs)   bands (ev):

   -19.6360 -19.4902  -7.4768  -6.4380  -5.7144  -5.7020  -4.8052  -4.7805
     3.3084   3.7598   4.4854   5.5752   5.7146   7.1044   7.9584   8.8010
     8.9478   9.2489   9.3166  10.5656

     occupation numbers 
     1.0000   1.0000   1.0000   1.0000   1.0000   1.0000   1.0000   1.0000
     0.0000   0.0000   0.0000   0.0000   0.0000   0.0000   0.0000   0.0000
     0.0000   0.0000   0.0000   0.0000

          k =-0.0625-0.1083 0.0000 (  5767 PWs)   bands (ev):

   -19.9308 -19.7792  -7.8783  -6.8131  -4.7356  -4.7222  -4.2974  -4.2762
     2.8162   3.2952   3.9917   5.1107   5.3135   6.9248   7.6621   8.9817
     9.0627   9.2019   9.6774   9.9692

     occupation numbers 
     1.0000   1.0000   1.0000   1.0000   1.0000   1.0000   1.0000   1.0000
     0.0000   0.0000   0.0000   0.0000   0.0000   0.0000   0.0000   0.0000
     0.0000   0.0000   0.0000   0.0000

     highest occupied, lowest unoccupied level (ev):    -2.4672    2.0155

     Writing all to output data dir ./tmp_16/BN2L_AA1_PBE_vdW.save/

     init_run     :      0.36s CPU      0.37s WALL (       1 calls)
     electrons    :     55.20s CPU     55.44s WALL (       1 calls)

     Called by init_run:
     wfcinit      :      0.00s CPU      0.00s WALL (       1 calls)
     wfcinit:atom :      0.05s CPU      0.05s WALL (     256 calls)
     wfcinit:wfcr :      2.38s CPU      2.41s WALL (     256 calls)
     potinit      :      0.01s CPU      0.01s WALL (       1 calls)
     hinit0       :      0.33s CPU      0.33s WALL (       1 calls)

     Called by electrons:
     c_bands      :     55.19s CPU     55.43s WALL (       1 calls)
     v_of_rho     :      0.01s CPU      0.01s WALL (       1 calls)
     v_h          :      0.00s CPU      0.00s WALL (       1 calls)
     v_xc         :      0.01s CPU      0.01s WALL (       1 calls)

     Called by c_bands:
     init_us_2    :      0.06s CPU      0.06s WALL (     256 calls)
     init_us_2:cp :      0.05s CPU      0.06s WALL (     256 calls)
     cegterg      :     52.52s CPU     52.69s WALL (     454 calls)

     Called by sum_band:

     Called by *egterg:
     cdiaghg      :      5.64s CPU      5.73s WALL (    6768 calls)
     cegterg:over :      4.69s CPU      4.77s WALL (    6512 calls)
     cegterg:upda :      5.40s CPU      6.23s WALL (    6512 calls)
     cegterg:last :      7.01s CPU      5.88s WALL (    3557 calls)
     cdiaghg:chol :      0.44s CPU      0.44s WALL (    6768 calls)
     cdiaghg:inve :      0.12s CPU      0.13s WALL (    6768 calls)
     cdiaghg:para :      0.78s CPU      0.82s WALL (   13536 calls)
     h_psi        :     30.71s CPU     30.89s WALL (    7222 calls)
     g_psi        :      0.26s CPU      0.30s WALL (    6512 calls)

     Called by h_psi:
     h_psi:calbec :      2.22s CPU      2.25s WALL (    7222 calls)
     vloc_psi     :     25.63s CPU     26.39s WALL (    7222 calls)
     add_vuspsi   :      2.59s CPU      1.94s WALL (    7222 calls)

     General routines
     calbec       :      2.21s CPU      2.23s WALL (    7222 calls)
     fft          :      0.26s CPU      0.27s WALL (      11 calls)
     fftw         :     23.10s CPU     23.67s WALL (  145444 calls)
     davcio       :      0.00s CPU      0.07s WALL (     512 calls)

     Parallel routines

     PWSCF        :     56.29s CPU     56.85s WALL


   This run was terminated on:   5:54:41  14Apr2025            

=------------------------------------------------------------------------------=
   JOB DONE.
=------------------------------------------------------------------------------=
