
     Program PWSCF v.7.0 starts on 14Apr2025 at  6:58:24 

     This program is part of the open-source Quantum ESPRESSO suite
     for quantum simulation of materials; please cite
         "P. Giannozzi et al., J. Phys.:Condens. Matter 21 395502 (2009);
         "P. Giannozzi et al., J. Phys.:Condens. Matter 29 465901 (2017);
         "P. Giannozzi et al., J. Chem. Phys. 152 154105 (2020);
          URL http://www.quantum-espresso.org", 
     in publications or presentations arising from this work. More details at
     http://www.quantum-espresso.org/quote

     Parallel version (MPI & OpenMP), running on       8 processor cores
     Number of MPI processes:                 8
     Threads/MPI process:                     1

     MPI processes distributed on     1 nodes
     R & G space division:  proc/nbgrp/npool/nimage =       8
     0 MiB available memory on the printing compute node when the environment starts

     Waiting for input...
     Reading input from standard input
Warning: card &IONS ignored
Warning: card / ignored
Warning: card &CELL ignored
Warning: card CELL_DOFREE = 'Z' ignored
Warning: card / ignored

     Current dimensions of program PWSCF are:
     Max number of different atomic species (ntypx) = 10
     Max number of k-points (npk) =  40000
     Max angular momentum in pseudopotentials (lmaxx) =  4

     Atomic positions and unit cell read from directory:
     ./tmp/BN2L_AA1_PBE_vdW.save/
     Atomic positions from file used, from input discarded


     Subspace diagonalization in iterative solution of the eigenvalue problem:
     one sub-group per band group will be used
     scalapack distributed-memory algorithm (size of sub-group:  2*  2 procs)


     Parallelization info
     --------------------
     sticks:   dense  smooth     PW     G-vecs:    dense   smooth      PW
     Min          45      45     15                 5791     5791    1151
     Max          46      46     16                 5824     5824    1190
     Sum         367     367    121                46525    46525    9289

     Using Slab Decomposition



     bravais-lattice index     =            4
     lattice parameter (alat)  =       4.7489  a.u.
     unit-cell volume          =     741.9928 (a.u.)^3
     number of atoms/cell      =            4
     number of atomic types    =            2
     number of electrons       =        16.00
     number of Kohn-Sham states=           20
     kinetic-energy cutoff     =      60.0000  Ry
     charge density cutoff     =     240.0000  Ry
     Exchange-correlation= PBE
                           (   1   4   3   4   0   0   0)

     celldm(1)=   4.748900  celldm(2)=   0.000000  celldm(3)=   8.000000
     celldm(4)=   0.000000  celldm(5)=   0.000000  celldm(6)=   0.000000

     crystal axes: (cart. coord. in units of alat)
               a(1) = (   1.000000   0.000000   0.000000 )  
               a(2) = (  -0.500000   0.866025   0.000000 )  
               a(3) = (   0.000000   0.000000   8.000000 )  

     reciprocal axes: (cart. coord. in units 2 pi/alat)
               b(1) = (  1.000000  0.577350 -0.000000 )  
               b(2) = (  0.000000  1.154701  0.000000 )  
               b(3) = (  0.000000 -0.000000  0.125000 )  


     PseudoPot. # 1 for B  read from file:
     ../../../../Pseudo/PBE/B.upf
     MD5 check sum: 72f82fc31bc892420d0cab7e25c88ab8
     Pseudo is Norm-conserving + core correction, Zval =  3.0
     Generated using ONCVPSP code by D. R. Hamann
     Using radial grid of 1534 points,  4 beta functions with: 
                l(1) =   0
                l(2) =   0
                l(3) =   1
                l(4) =   1

     PseudoPot. # 2 for N  read from file:
     ../../../../Pseudo/PBE/N.upf
     MD5 check sum: d34365f73bb0e2ee98afc20ec3e87676
     Pseudo is Norm-conserving + core correction, Zval =  5.0
     Generated using ONCVPSP code by D. R. Hamann
     Using radial grid of 1058 points,  4 beta functions with: 
                l(1) =   0
                l(2) =   0
                l(3) =   1
                l(4) =   1

     atomic species   valence    mass     pseudopotential
        B              3.00    10.00000     B ( 1.00)
        N              5.00    14.01100     N ( 1.00)

     No symmetry found


                                    s                        frac. trans.

      isym =  1     identity                                     

 cryst.   s( 1) = (     1          0          0      )
                  (     0          1          0      )
                  (     0          0          1      )

 cart.    s( 1) = (  1.0000000  0.0000000  0.0000000 )
                  (  0.0000000  1.0000000  0.0000000 )
                  (  0.0000000  0.0000000  1.0000000 )


     point group C_1 (1)    
     there are  1 classes
     the character table:

       E    
A      1.00

     the symmetry operations in each class and the name of the first element:

     E        1
          identity                                               

   Cartesian axes

     site n.     atom                  positions (alat units)
         1           B   tau(   1) = (   0.0000000   0.0000000   0.0000000  )
         2           N   tau(   2) = (   0.5000005   0.2886748   0.0000000  )
         3           N   tau(   3) = (   0.0000000   0.0000000   1.3119520  )
         4           B   tau(   4) = (   0.5000005   0.2886748   1.3119520  )

   Crystallographic axes

     site n.     atom                  positions (cryst. coord.)
         1           B   tau(   1) = (  0.0000000  0.0000000  0.0000000  )
         2           N   tau(   2) = (  0.6666670  0.3333330  0.0000000  )
         3           N   tau(   3) = (  0.0000000  0.0000000  0.1639940  )
         4           B   tau(   4) = (  0.6666670  0.3333330  0.1639940  )

     number of k points=   256
                       cart. coord. in units 2pi/alat
        k(    1) = (   0.0000000   0.0000000   0.0000000), wk =   0.0078125
        k(    2) = (   0.0000000   0.0721688   0.0000000), wk =   0.0078125
        k(    3) = (   0.0000000   0.1443376   0.0000000), wk =   0.0078125
        k(    4) = (   0.0000000   0.2165064   0.0000000), wk =   0.0078125
        k(    5) = (   0.0000000   0.2886751   0.0000000), wk =   0.0078125
        k(    6) = (   0.0000000   0.3608439   0.0000000), wk =   0.0078125
        k(    7) = (   0.0000000   0.4330127   0.0000000), wk =   0.0078125
        k(    8) = (   0.0000000   0.5051815   0.0000000), wk =   0.0078125
        k(    9) = (   0.0000000  -0.5773503   0.0000000), wk =   0.0078125
        k(   10) = (   0.0000000  -0.5051815   0.0000000), wk =   0.0078125
        k(   11) = (   0.0000000  -0.4330127   0.0000000), wk =   0.0078125
        k(   12) = (   0.0000000  -0.3608439   0.0000000), wk =   0.0078125
        k(   13) = (   0.0000000  -0.2886751   0.0000000), wk =   0.0078125
        k(   14) = (   0.0000000  -0.2165064   0.0000000), wk =   0.0078125
        k(   15) = (   0.0000000  -0.1443376   0.0000000), wk =   0.0078125
        k(   16) = (   0.0000000  -0.0721688   0.0000000), wk =   0.0078125
        k(   17) = (   0.0625000   0.0360844   0.0000000), wk =   0.0078125
        k(   18) = (   0.0625000   0.1082532   0.0000000), wk =   0.0078125
        k(   19) = (   0.0625000   0.1804220   0.0000000), wk =   0.0078125
        k(   20) = (   0.0625000   0.2525907   0.0000000), wk =   0.0078125
        k(   21) = (   0.0625000   0.3247595   0.0000000), wk =   0.0078125
        k(   22) = (   0.0625000   0.3969283   0.0000000), wk =   0.0078125
        k(   23) = (   0.0625000   0.4690971   0.0000000), wk =   0.0078125
        k(   24) = (   0.0625000   0.5412659   0.0000000), wk =   0.0078125
        k(   25) = (   0.0625000  -0.5412659   0.0000000), wk =   0.0078125
        k(   26) = (   0.0625000  -0.4690971   0.0000000), wk =   0.0078125
        k(   27) = (   0.0625000  -0.3969283   0.0000000), wk =   0.0078125
        k(   28) = (   0.0625000  -0.3247595   0.0000000), wk =   0.0078125
        k(   29) = (   0.0625000  -0.2525907   0.0000000), wk =   0.0078125
        k(   30) = (   0.0625000  -0.1804220   0.0000000), wk =   0.0078125
        k(   31) = (   0.0625000  -0.1082532   0.0000000), wk =   0.0078125
        k(   32) = (   0.0625000  -0.0360844   0.0000000), wk =   0.0078125
        k(   33) = (   0.1250000   0.0721688   0.0000000), wk =   0.0078125
        k(   34) = (   0.1250000   0.1443376   0.0000000), wk =   0.0078125
        k(   35) = (   0.1250000   0.2165064   0.0000000), wk =   0.0078125
        k(   36) = (   0.1250000   0.2886751   0.0000000), wk =   0.0078125
        k(   37) = (   0.1250000   0.3608439   0.0000000), wk =   0.0078125
        k(   38) = (   0.1250000   0.4330127   0.0000000), wk =   0.0078125
        k(   39) = (   0.1250000   0.5051815   0.0000000), wk =   0.0078125
        k(   40) = (   0.1250000   0.5773503   0.0000000), wk =   0.0078125
        k(   41) = (   0.1250000  -0.5051815   0.0000000), wk =   0.0078125
        k(   42) = (   0.1250000  -0.4330127   0.0000000), wk =   0.0078125
        k(   43) = (   0.1250000  -0.3608439   0.0000000), wk =   0.0078125
        k(   44) = (   0.1250000  -0.2886751   0.0000000), wk =   0.0078125
        k(   45) = (   0.1250000  -0.2165064   0.0000000), wk =   0.0078125
        k(   46) = (   0.1250000  -0.1443376   0.0000000), wk =   0.0078125
        k(   47) = (   0.1250000  -0.0721688   0.0000000), wk =   0.0078125
        k(   48) = (   0.1250000   0.0000000   0.0000000), wk =   0.0078125
        k(   49) = (   0.1875000   0.1082532   0.0000000), wk =   0.0078125
        k(   50) = (   0.1875000   0.1804220   0.0000000), wk =   0.0078125
        k(   51) = (   0.1875000   0.2525907   0.0000000), wk =   0.0078125
        k(   52) = (   0.1875000   0.3247595   0.0000000), wk =   0.0078125
        k(   53) = (   0.1875000   0.3969283   0.0000000), wk =   0.0078125
        k(   54) = (   0.1875000   0.4690971   0.0000000), wk =   0.0078125
        k(   55) = (   0.1875000   0.5412659   0.0000000), wk =   0.0078125
        k(   56) = (   0.1875000   0.6134347   0.0000000), wk =   0.0078125
        k(   57) = (   0.1875000  -0.4690971   0.0000000), wk =   0.0078125
        k(   58) = (   0.1875000  -0.3969283   0.0000000), wk =   0.0078125
        k(   59) = (   0.1875000  -0.3247595   0.0000000), wk =   0.0078125
        k(   60) = (   0.1875000  -0.2525907   0.0000000), wk =   0.0078125
        k(   61) = (   0.1875000  -0.1804220   0.0000000), wk =   0.0078125
        k(   62) = (   0.1875000  -0.1082532   0.0000000), wk =   0.0078125
        k(   63) = (   0.1875000  -0.0360844   0.0000000), wk =   0.0078125
        k(   64) = (   0.1875000   0.0360844   0.0000000), wk =   0.0078125
        k(   65) = (   0.2500000   0.1443376   0.0000000), wk =   0.0078125
        k(   66) = (   0.2500000   0.2165064   0.0000000), wk =   0.0078125
        k(   67) = (   0.2500000   0.2886751   0.0000000), wk =   0.0078125
        k(   68) = (   0.2500000   0.3608439   0.0000000), wk =   0.0078125
        k(   69) = (   0.2500000   0.4330127   0.0000000), wk =   0.0078125
        k(   70) = (   0.2500000   0.5051815   0.0000000), wk =   0.0078125
        k(   71) = (   0.2500000   0.5773503   0.0000000), wk =   0.0078125
        k(   72) = (   0.2500000   0.6495191   0.0000000), wk =   0.0078125
        k(   73) = (   0.2500000  -0.4330127   0.0000000), wk =   0.0078125
        k(   74) = (   0.2500000  -0.3608439   0.0000000), wk =   0.0078125
        k(   75) = (   0.2500000  -0.2886751   0.0000000), wk =   0.0078125
        k(   76) = (   0.2500000  -0.2165064   0.0000000), wk =   0.0078125
        k(   77) = (   0.2500000  -0.1443376   0.0000000), wk =   0.0078125
        k(   78) = (   0.2500000  -0.0721688   0.0000000), wk =   0.0078125
        k(   79) = (   0.2500000   0.0000000   0.0000000), wk =   0.0078125
        k(   80) = (   0.2500000   0.0721688   0.0000000), wk =   0.0078125
        k(   81) = (   0.3125000   0.1804220   0.0000000), wk =   0.0078125
        k(   82) = (   0.3125000   0.2525907   0.0000000), wk =   0.0078125
        k(   83) = (   0.3125000   0.3247595   0.0000000), wk =   0.0078125
        k(   84) = (   0.3125000   0.3969283   0.0000000), wk =   0.0078125
        k(   85) = (   0.3125000   0.4690971   0.0000000), wk =   0.0078125
        k(   86) = (   0.3125000   0.5412659   0.0000000), wk =   0.0078125
        k(   87) = (   0.3125000   0.6134347   0.0000000), wk =   0.0078125
        k(   88) = (   0.3125000   0.6856034   0.0000000), wk =   0.0078125
        k(   89) = (   0.3125000  -0.3969283   0.0000000), wk =   0.0078125
        k(   90) = (   0.3125000  -0.3247595   0.0000000), wk =   0.0078125
        k(   91) = (   0.3125000  -0.2525907   0.0000000), wk =   0.0078125
        k(   92) = (   0.3125000  -0.1804220   0.0000000), wk =   0.0078125
        k(   93) = (   0.3125000  -0.1082532   0.0000000), wk =   0.0078125
        k(   94) = (   0.3125000  -0.0360844   0.0000000), wk =   0.0078125
        k(   95) = (   0.3125000   0.0360844   0.0000000), wk =   0.0078125
        k(   96) = (   0.3125000   0.1082532   0.0000000), wk =   0.0078125
        k(   97) = (   0.3750000   0.2165064   0.0000000), wk =   0.0078125
        k(   98) = (   0.3750000   0.2886751   0.0000000), wk =   0.0078125
        k(   99) = (   0.3750000   0.3608439   0.0000000), wk =   0.0078125
        k(  100) = (   0.3750000   0.4330127   0.0000000), wk =   0.0078125
        k(  101) = (   0.3750000   0.5051815   0.0000000), wk =   0.0078125
        k(  102) = (   0.3750000   0.5773503   0.0000000), wk =   0.0078125
        k(  103) = (   0.3750000   0.6495191   0.0000000), wk =   0.0078125
        k(  104) = (   0.3750000   0.7216878   0.0000000), wk =   0.0078125
        k(  105) = (   0.3750000  -0.3608439   0.0000000), wk =   0.0078125
        k(  106) = (   0.3750000  -0.2886751   0.0000000), wk =   0.0078125
        k(  107) = (   0.3750000  -0.2165064   0.0000000), wk =   0.0078125
        k(  108) = (   0.3750000  -0.1443376   0.0000000), wk =   0.0078125
        k(  109) = (   0.3750000  -0.0721688   0.0000000), wk =   0.0078125
        k(  110) = (   0.3750000   0.0000000   0.0000000), wk =   0.0078125
        k(  111) = (   0.3750000   0.0721688   0.0000000), wk =   0.0078125
        k(  112) = (   0.3750000   0.1443376   0.0000000), wk =   0.0078125
        k(  113) = (   0.4375000   0.2525907   0.0000000), wk =   0.0078125
        k(  114) = (   0.4375000   0.3247595   0.0000000), wk =   0.0078125
        k(  115) = (   0.4375000   0.3969283   0.0000000), wk =   0.0078125
        k(  116) = (   0.4375000   0.4690971   0.0000000), wk =   0.0078125
        k(  117) = (   0.4375000   0.5412659   0.0000000), wk =   0.0078125
        k(  118) = (   0.4375000   0.6134347   0.0000000), wk =   0.0078125
        k(  119) = (   0.4375000   0.6856034   0.0000000), wk =   0.0078125
        k(  120) = (   0.4375000   0.7577722   0.0000000), wk =   0.0078125
        k(  121) = (   0.4375000  -0.3247595   0.0000000), wk =   0.0078125
        k(  122) = (   0.4375000  -0.2525907   0.0000000), wk =   0.0078125
        k(  123) = (   0.4375000  -0.1804220   0.0000000), wk =   0.0078125
        k(  124) = (   0.4375000  -0.1082532   0.0000000), wk =   0.0078125
        k(  125) = (   0.4375000  -0.0360844   0.0000000), wk =   0.0078125
        k(  126) = (   0.4375000   0.0360844   0.0000000), wk =   0.0078125
        k(  127) = (   0.4375000   0.1082532   0.0000000), wk =   0.0078125
        k(  128) = (   0.4375000   0.1804220   0.0000000), wk =   0.0078125
        k(  129) = (  -0.5000000  -0.2886751   0.0000000), wk =   0.0078125
        k(  130) = (  -0.5000000  -0.2165064   0.0000000), wk =   0.0078125
        k(  131) = (  -0.5000000  -0.1443376   0.0000000), wk =   0.0078125
        k(  132) = (  -0.5000000  -0.0721688   0.0000000), wk =   0.0078125
        k(  133) = (  -0.5000000   0.0000000   0.0000000), wk =   0.0078125
        k(  134) = (  -0.5000000   0.0721688   0.0000000), wk =   0.0078125
        k(  135) = (  -0.5000000   0.1443376   0.0000000), wk =   0.0078125
        k(  136) = (  -0.5000000   0.2165064   0.0000000), wk =   0.0078125
        k(  137) = (  -0.5000000  -0.8660254   0.0000000), wk =   0.0078125
        k(  138) = (  -0.5000000  -0.7938566   0.0000000), wk =   0.0078125
        k(  139) = (  -0.5000000  -0.7216878   0.0000000), wk =   0.0078125
        k(  140) = (  -0.5000000  -0.6495191   0.0000000), wk =   0.0078125
        k(  141) = (  -0.5000000  -0.5773503   0.0000000), wk =   0.0078125
        k(  142) = (  -0.5000000  -0.5051815   0.0000000), wk =   0.0078125
        k(  143) = (  -0.5000000  -0.4330127   0.0000000), wk =   0.0078125
        k(  144) = (  -0.5000000  -0.3608439   0.0000000), wk =   0.0078125
        k(  145) = (  -0.4375000  -0.2525907   0.0000000), wk =   0.0078125
        k(  146) = (  -0.4375000  -0.1804220   0.0000000), wk =   0.0078125
        k(  147) = (  -0.4375000  -0.1082532   0.0000000), wk =   0.0078125
        k(  148) = (  -0.4375000  -0.0360844   0.0000000), wk =   0.0078125
        k(  149) = (  -0.4375000   0.0360844   0.0000000), wk =   0.0078125
        k(  150) = (  -0.4375000   0.1082532   0.0000000), wk =   0.0078125
        k(  151) = (  -0.4375000   0.1804220   0.0000000), wk =   0.0078125
        k(  152) = (  -0.4375000   0.2525907   0.0000000), wk =   0.0078125
        k(  153) = (  -0.4375000  -0.8299410   0.0000000), wk =   0.0078125
        k(  154) = (  -0.4375000  -0.7577722   0.0000000), wk =   0.0078125
        k(  155) = (  -0.4375000  -0.6856034   0.0000000), wk =   0.0078125
        k(  156) = (  -0.4375000  -0.6134347   0.0000000), wk =   0.0078125
        k(  157) = (  -0.4375000  -0.5412659   0.0000000), wk =   0.0078125
        k(  158) = (  -0.4375000  -0.4690971   0.0000000), wk =   0.0078125
        k(  159) = (  -0.4375000  -0.3969283   0.0000000), wk =   0.0078125
        k(  160) = (  -0.4375000  -0.3247595   0.0000000), wk =   0.0078125
        k(  161) = (  -0.3750000  -0.2165064   0.0000000), wk =   0.0078125
        k(  162) = (  -0.3750000  -0.1443376   0.0000000), wk =   0.0078125
        k(  163) = (  -0.3750000  -0.0721688   0.0000000), wk =   0.0078125
        k(  164) = (  -0.3750000   0.0000000   0.0000000), wk =   0.0078125
        k(  165) = (  -0.3750000   0.0721688   0.0000000), wk =   0.0078125
        k(  166) = (  -0.3750000   0.1443376   0.0000000), wk =   0.0078125
        k(  167) = (  -0.3750000   0.2165064   0.0000000), wk =   0.0078125
        k(  168) = (  -0.3750000   0.2886751   0.0000000), wk =   0.0078125
        k(  169) = (  -0.3750000  -0.7938566   0.0000000), wk =   0.0078125
        k(  170) = (  -0.3750000  -0.7216878   0.0000000), wk =   0.0078125
        k(  171) = (  -0.3750000  -0.6495191   0.0000000), wk =   0.0078125
        k(  172) = (  -0.3750000  -0.5773503   0.0000000), wk =   0.0078125
        k(  173) = (  -0.3750000  -0.5051815   0.0000000), wk =   0.0078125
        k(  174) = (  -0.3750000  -0.4330127   0.0000000), wk =   0.0078125
        k(  175) = (  -0.3750000  -0.3608439   0.0000000), wk =   0.0078125
        k(  176) = (  -0.3750000  -0.2886751   0.0000000), wk =   0.0078125
        k(  177) = (  -0.3125000  -0.1804220   0.0000000), wk =   0.0078125
        k(  178) = (  -0.3125000  -0.1082532   0.0000000), wk =   0.0078125
        k(  179) = (  -0.3125000  -0.0360844   0.0000000), wk =   0.0078125
        k(  180) = (  -0.3125000   0.0360844   0.0000000), wk =   0.0078125
        k(  181) = (  -0.3125000   0.1082532   0.0000000), wk =   0.0078125
        k(  182) = (  -0.3125000   0.1804220   0.0000000), wk =   0.0078125
        k(  183) = (  -0.3125000   0.2525907   0.0000000), wk =   0.0078125
        k(  184) = (  -0.3125000   0.3247595   0.0000000), wk =   0.0078125
        k(  185) = (  -0.3125000  -0.7577722   0.0000000), wk =   0.0078125
        k(  186) = (  -0.3125000  -0.6856034   0.0000000), wk =   0.0078125
        k(  187) = (  -0.3125000  -0.6134347   0.0000000), wk =   0.0078125
        k(  188) = (  -0.3125000  -0.5412659   0.0000000), wk =   0.0078125
        k(  189) = (  -0.3125000  -0.4690971   0.0000000), wk =   0.0078125
        k(  190) = (  -0.3125000  -0.3969283   0.0000000), wk =   0.0078125
        k(  191) = (  -0.3125000  -0.3247595   0.0000000), wk =   0.0078125
        k(  192) = (  -0.3125000  -0.2525907   0.0000000), wk =   0.0078125
        k(  193) = (  -0.2500000  -0.1443376   0.0000000), wk =   0.0078125
        k(  194) = (  -0.2500000  -0.0721688   0.0000000), wk =   0.0078125
        k(  195) = (  -0.2500000   0.0000000   0.0000000), wk =   0.0078125
        k(  196) = (  -0.2500000   0.0721688   0.0000000), wk =   0.0078125
        k(  197) = (  -0.2500000   0.1443376   0.0000000), wk =   0.0078125
        k(  198) = (  -0.2500000   0.2165064   0.0000000), wk =   0.0078125
        k(  199) = (  -0.2500000   0.2886751   0.0000000), wk =   0.0078125
        k(  200) = (  -0.2500000   0.3608439   0.0000000), wk =   0.0078125
        k(  201) = (  -0.2500000  -0.7216878   0.0000000), wk =   0.0078125
        k(  202) = (  -0.2500000  -0.6495191   0.0000000), wk =   0.0078125
        k(  203) = (  -0.2500000  -0.5773503   0.0000000), wk =   0.0078125
        k(  204) = (  -0.2500000  -0.5051815   0.0000000), wk =   0.0078125
        k(  205) = (  -0.2500000  -0.4330127   0.0000000), wk =   0.0078125
        k(  206) = (  -0.2500000  -0.3608439   0.0000000), wk =   0.0078125
        k(  207) = (  -0.2500000  -0.2886751   0.0000000), wk =   0.0078125
        k(  208) = (  -0.2500000  -0.2165064   0.0000000), wk =   0.0078125
        k(  209) = (  -0.1875000  -0.1082532   0.0000000), wk =   0.0078125
        k(  210) = (  -0.1875000  -0.0360844   0.0000000), wk =   0.0078125
        k(  211) = (  -0.1875000   0.0360844   0.0000000), wk =   0.0078125
        k(  212) = (  -0.1875000   0.1082532   0.0000000), wk =   0.0078125
        k(  213) = (  -0.1875000   0.1804220   0.0000000), wk =   0.0078125
        k(  214) = (  -0.1875000   0.2525907   0.0000000), wk =   0.0078125
        k(  215) = (  -0.1875000   0.3247595   0.0000000), wk =   0.0078125
        k(  216) = (  -0.1875000   0.3969283   0.0000000), wk =   0.0078125
        k(  217) = (  -0.1875000  -0.6856034   0.0000000), wk =   0.0078125
        k(  218) = (  -0.1875000  -0.6134347   0.0000000), wk =   0.0078125
        k(  219) = (  -0.1875000  -0.5412659   0.0000000), wk =   0.0078125
        k(  220) = (  -0.1875000  -0.4690971   0.0000000), wk =   0.0078125
        k(  221) = (  -0.1875000  -0.3969283   0.0000000), wk =   0.0078125
        k(  222) = (  -0.1875000  -0.3247595   0.0000000), wk =   0.0078125
        k(  223) = (  -0.1875000  -0.2525907   0.0000000), wk =   0.0078125
        k(  224) = (  -0.1875000  -0.1804220   0.0000000), wk =   0.0078125
        k(  225) = (  -0.1250000  -0.0721688   0.0000000), wk =   0.0078125
        k(  226) = (  -0.1250000   0.0000000   0.0000000), wk =   0.0078125
        k(  227) = (  -0.1250000   0.0721688   0.0000000), wk =   0.0078125
        k(  228) = (  -0.1250000   0.1443376   0.0000000), wk =   0.0078125
        k(  229) = (  -0.1250000   0.2165064   0.0000000), wk =   0.0078125
        k(  230) = (  -0.1250000   0.2886751   0.0000000), wk =   0.0078125
        k(  231) = (  -0.1250000   0.3608439   0.0000000), wk =   0.0078125
        k(  232) = (  -0.1250000   0.4330127   0.0000000), wk =   0.0078125
        k(  233) = (  -0.1250000  -0.6495191   0.0000000), wk =   0.0078125
        k(  234) = (  -0.1250000  -0.5773503   0.0000000), wk =   0.0078125
        k(  235) = (  -0.1250000  -0.5051815   0.0000000), wk =   0.0078125
        k(  236) = (  -0.1250000  -0.4330127   0.0000000), wk =   0.0078125
        k(  237) = (  -0.1250000  -0.3608439   0.0000000), wk =   0.0078125
        k(  238) = (  -0.1250000  -0.2886751   0.0000000), wk =   0.0078125
        k(  239) = (  -0.1250000  -0.2165064   0.0000000), wk =   0.0078125
        k(  240) = (  -0.1250000  -0.1443376   0.0000000), wk =   0.0078125
        k(  241) = (  -0.0625000  -0.0360844   0.0000000), wk =   0.0078125
        k(  242) = (  -0.0625000   0.0360844   0.0000000), wk =   0.0078125
        k(  243) = (  -0.0625000   0.1082532   0.0000000), wk =   0.0078125
        k(  244) = (  -0.0625000   0.1804220   0.0000000), wk =   0.0078125
        k(  245) = (  -0.0625000   0.2525907   0.0000000), wk =   0.0078125
        k(  246) = (  -0.0625000   0.3247595   0.0000000), wk =   0.0078125
        k(  247) = (  -0.0625000   0.3969283   0.0000000), wk =   0.0078125
        k(  248) = (  -0.0625000   0.4690971   0.0000000), wk =   0.0078125
        k(  249) = (  -0.0625000  -0.6134347   0.0000000), wk =   0.0078125
        k(  250) = (  -0.0625000  -0.5412659   0.0000000), wk =   0.0078125
        k(  251) = (  -0.0625000  -0.4690971   0.0000000), wk =   0.0078125
        k(  252) = (  -0.0625000  -0.3969283   0.0000000), wk =   0.0078125
        k(  253) = (  -0.0625000  -0.3247595   0.0000000), wk =   0.0078125
        k(  254) = (  -0.0625000  -0.2525907   0.0000000), wk =   0.0078125
        k(  255) = (  -0.0625000  -0.1804220   0.0000000), wk =   0.0078125
        k(  256) = (  -0.0625000  -0.1082532   0.0000000), wk =   0.0078125

                       cryst. coord.
        k(    1) = (   0.0000000   0.0000000   0.0000000), wk =   0.0078125
        k(    2) = (   0.0000000   0.0625000   0.0000000), wk =   0.0078125
        k(    3) = (   0.0000000   0.1250000   0.0000000), wk =   0.0078125
        k(    4) = (   0.0000000   0.1875000   0.0000000), wk =   0.0078125
        k(    5) = (   0.0000000   0.2500000   0.0000000), wk =   0.0078125
        k(    6) = (   0.0000000   0.3125000   0.0000000), wk =   0.0078125
        k(    7) = (   0.0000000   0.3750000   0.0000000), wk =   0.0078125
        k(    8) = (   0.0000000   0.4375000   0.0000000), wk =   0.0078125
        k(    9) = (   0.0000000  -0.5000000   0.0000000), wk =   0.0078125
        k(   10) = (   0.0000000  -0.4375000   0.0000000), wk =   0.0078125
        k(   11) = (   0.0000000  -0.3750000   0.0000000), wk =   0.0078125
        k(   12) = (   0.0000000  -0.3125000   0.0000000), wk =   0.0078125
        k(   13) = (   0.0000000  -0.2500000   0.0000000), wk =   0.0078125
        k(   14) = (   0.0000000  -0.1875000   0.0000000), wk =   0.0078125
        k(   15) = (   0.0000000  -0.1250000   0.0000000), wk =   0.0078125
        k(   16) = (   0.0000000  -0.0625000   0.0000000), wk =   0.0078125
        k(   17) = (   0.0625000   0.0000000   0.0000000), wk =   0.0078125
        k(   18) = (   0.0625000   0.0625000   0.0000000), wk =   0.0078125
        k(   19) = (   0.0625000   0.1250000   0.0000000), wk =   0.0078125
        k(   20) = (   0.0625000   0.1875000   0.0000000), wk =   0.0078125
        k(   21) = (   0.0625000   0.2500000   0.0000000), wk =   0.0078125
        k(   22) = (   0.0625000   0.3125000   0.0000000), wk =   0.0078125
        k(   23) = (   0.0625000   0.3750000   0.0000000), wk =   0.0078125
        k(   24) = (   0.0625000   0.4375000   0.0000000), wk =   0.0078125
        k(   25) = (   0.0625000  -0.5000000   0.0000000), wk =   0.0078125
        k(   26) = (   0.0625000  -0.4375000   0.0000000), wk =   0.0078125
        k(   27) = (   0.0625000  -0.3750000   0.0000000), wk =   0.0078125
        k(   28) = (   0.0625000  -0.3125000   0.0000000), wk =   0.0078125
        k(   29) = (   0.0625000  -0.2500000   0.0000000), wk =   0.0078125
        k(   30) = (   0.0625000  -0.1875000   0.0000000), wk =   0.0078125
        k(   31) = (   0.0625000  -0.1250000   0.0000000), wk =   0.0078125
        k(   32) = (   0.0625000  -0.0625000   0.0000000), wk =   0.0078125
        k(   33) = (   0.1250000   0.0000000   0.0000000), wk =   0.0078125
        k(   34) = (   0.1250000   0.0625000   0.0000000), wk =   0.0078125
        k(   35) = (   0.1250000   0.1250000   0.0000000), wk =   0.0078125
        k(   36) = (   0.1250000   0.1875000   0.0000000), wk =   0.0078125
        k(   37) = (   0.1250000   0.2500000   0.0000000), wk =   0.0078125
        k(   38) = (   0.1250000   0.3125000   0.0000000), wk =   0.0078125
        k(   39) = (   0.1250000   0.3750000   0.0000000), wk =   0.0078125
        k(   40) = (   0.1250000   0.4375000   0.0000000), wk =   0.0078125
        k(   41) = (   0.1250000  -0.5000000   0.0000000), wk =   0.0078125
        k(   42) = (   0.1250000  -0.4375000   0.0000000), wk =   0.0078125
        k(   43) = (   0.1250000  -0.3750000   0.0000000), wk =   0.0078125
        k(   44) = (   0.1250000  -0.3125000   0.0000000), wk =   0.0078125
        k(   45) = (   0.1250000  -0.2500000   0.0000000), wk =   0.0078125
        k(   46) = (   0.1250000  -0.1875000   0.0000000), wk =   0.0078125
        k(   47) = (   0.1250000  -0.1250000   0.0000000), wk =   0.0078125
        k(   48) = (   0.1250000  -0.0625000   0.0000000), wk =   0.0078125
        k(   49) = (   0.1875000  -0.0000000   0.0000000), wk =   0.0078125
        k(   50) = (   0.1875000   0.0625000   0.0000000), wk =   0.0078125
        k(   51) = (   0.1875000   0.1250000   0.0000000), wk =   0.0078125
        k(   52) = (   0.1875000   0.1875000   0.0000000), wk =   0.0078125
        k(   53) = (   0.1875000   0.2500000   0.0000000), wk =   0.0078125
        k(   54) = (   0.1875000   0.3125000   0.0000000), wk =   0.0078125
        k(   55) = (   0.1875000   0.3750000   0.0000000), wk =   0.0078125
        k(   56) = (   0.1875000   0.4375000   0.0000000), wk =   0.0078125
        k(   57) = (   0.1875000  -0.5000000   0.0000000), wk =   0.0078125
        k(   58) = (   0.1875000  -0.4375000   0.0000000), wk =   0.0078125
        k(   59) = (   0.1875000  -0.3750000   0.0000000), wk =   0.0078125
        k(   60) = (   0.1875000  -0.3125000   0.0000000), wk =   0.0078125
        k(   61) = (   0.1875000  -0.2500000   0.0000000), wk =   0.0078125
        k(   62) = (   0.1875000  -0.1875000   0.0000000), wk =   0.0078125
        k(   63) = (   0.1875000  -0.1250000   0.0000000), wk =   0.0078125
        k(   64) = (   0.1875000  -0.0625000   0.0000000), wk =   0.0078125
        k(   65) = (   0.2500000   0.0000000   0.0000000), wk =   0.0078125
        k(   66) = (   0.2500000   0.0625000   0.0000000), wk =   0.0078125
        k(   67) = (   0.2500000   0.1250000   0.0000000), wk =   0.0078125
        k(   68) = (   0.2500000   0.1875000   0.0000000), wk =   0.0078125
        k(   69) = (   0.2500000   0.2500000   0.0000000), wk =   0.0078125
        k(   70) = (   0.2500000   0.3125000   0.0000000), wk =   0.0078125
        k(   71) = (   0.2500000   0.3750000   0.0000000), wk =   0.0078125
        k(   72) = (   0.2500000   0.4375000   0.0000000), wk =   0.0078125
        k(   73) = (   0.2500000  -0.5000000   0.0000000), wk =   0.0078125
        k(   74) = (   0.2500000  -0.4375000   0.0000000), wk =   0.0078125
        k(   75) = (   0.2500000  -0.3750000   0.0000000), wk =   0.0078125
        k(   76) = (   0.2500000  -0.3125000   0.0000000), wk =   0.0078125
        k(   77) = (   0.2500000  -0.2500000   0.0000000), wk =   0.0078125
        k(   78) = (   0.2500000  -0.1875000   0.0000000), wk =   0.0078125
        k(   79) = (   0.2500000  -0.1250000   0.0000000), wk =   0.0078125
        k(   80) = (   0.2500000  -0.0625000   0.0000000), wk =   0.0078125
        k(   81) = (   0.3125000   0.0000000   0.0000000), wk =   0.0078125
        k(   82) = (   0.3125000   0.0625000   0.0000000), wk =   0.0078125
        k(   83) = (   0.3125000   0.1250000   0.0000000), wk =   0.0078125
        k(   84) = (   0.3125000   0.1875000   0.0000000), wk =   0.0078125
        k(   85) = (   0.3125000   0.2500000   0.0000000), wk =   0.0078125
        k(   86) = (   0.3125000   0.3125000   0.0000000), wk =   0.0078125
        k(   87) = (   0.3125000   0.3750000   0.0000000), wk =   0.0078125
        k(   88) = (   0.3125000   0.4375000   0.0000000), wk =   0.0078125
        k(   89) = (   0.3125000  -0.5000000   0.0000000), wk =   0.0078125
        k(   90) = (   0.3125000  -0.4375000   0.0000000), wk =   0.0078125
        k(   91) = (   0.3125000  -0.3750000   0.0000000), wk =   0.0078125
        k(   92) = (   0.3125000  -0.3125000   0.0000000), wk =   0.0078125
        k(   93) = (   0.3125000  -0.2500000   0.0000000), wk =   0.0078125
        k(   94) = (   0.3125000  -0.1875000   0.0000000), wk =   0.0078125
        k(   95) = (   0.3125000  -0.1250000   0.0000000), wk =   0.0078125
        k(   96) = (   0.3125000  -0.0625000   0.0000000), wk =   0.0078125
        k(   97) = (   0.3750000  -0.0000000   0.0000000), wk =   0.0078125
        k(   98) = (   0.3750000   0.0625000   0.0000000), wk =   0.0078125
        k(   99) = (   0.3750000   0.1250000   0.0000000), wk =   0.0078125
        k(  100) = (   0.3750000   0.1875000   0.0000000), wk =   0.0078125
        k(  101) = (   0.3750000   0.2500000   0.0000000), wk =   0.0078125
        k(  102) = (   0.3750000   0.3125000   0.0000000), wk =   0.0078125
        k(  103) = (   0.3750000   0.3750000   0.0000000), wk =   0.0078125
        k(  104) = (   0.3750000   0.4375000   0.0000000), wk =   0.0078125
        k(  105) = (   0.3750000  -0.5000000   0.0000000), wk =   0.0078125
        k(  106) = (   0.3750000  -0.4375000   0.0000000), wk =   0.0078125
        k(  107) = (   0.3750000  -0.3750000   0.0000000), wk =   0.0078125
        k(  108) = (   0.3750000  -0.3125000   0.0000000), wk =   0.0078125
        k(  109) = (   0.3750000  -0.2500000   0.0000000), wk =   0.0078125
        k(  110) = (   0.3750000  -0.1875000   0.0000000), wk =   0.0078125
        k(  111) = (   0.3750000  -0.1250000   0.0000000), wk =   0.0078125
        k(  112) = (   0.3750000  -0.0625000   0.0000000), wk =   0.0078125
        k(  113) = (   0.4375000   0.0000000   0.0000000), wk =   0.0078125
        k(  114) = (   0.4375000   0.0625000   0.0000000), wk =   0.0078125
        k(  115) = (   0.4375000   0.1250000   0.0000000), wk =   0.0078125
        k(  116) = (   0.4375000   0.1875000   0.0000000), wk =   0.0078125
        k(  117) = (   0.4375000   0.2500000   0.0000000), wk =   0.0078125
        k(  118) = (   0.4375000   0.3125000   0.0000000), wk =   0.0078125
        k(  119) = (   0.4375000   0.3750000   0.0000000), wk =   0.0078125
        k(  120) = (   0.4375000   0.4375000   0.0000000), wk =   0.0078125
        k(  121) = (   0.4375000  -0.5000000   0.0000000), wk =   0.0078125
        k(  122) = (   0.4375000  -0.4375000   0.0000000), wk =   0.0078125
        k(  123) = (   0.4375000  -0.3750000   0.0000000), wk =   0.0078125
        k(  124) = (   0.4375000  -0.3125000   0.0000000), wk =   0.0078125
        k(  125) = (   0.4375000  -0.2500000   0.0000000), wk =   0.0078125
        k(  126) = (   0.4375000  -0.1875000   0.0000000), wk =   0.0078125
        k(  127) = (   0.4375000  -0.1250000   0.0000000), wk =   0.0078125
        k(  128) = (   0.4375000  -0.0625000   0.0000000), wk =   0.0078125
        k(  129) = (  -0.5000000   0.0000000   0.0000000), wk =   0.0078125
        k(  130) = (  -0.5000000   0.0625000   0.0000000), wk =   0.0078125
        k(  131) = (  -0.5000000   0.1250000   0.0000000), wk =   0.0078125
        k(  132) = (  -0.5000000   0.1875000   0.0000000), wk =   0.0078125
        k(  133) = (  -0.5000000   0.2500000   0.0000000), wk =   0.0078125
        k(  134) = (  -0.5000000   0.3125000   0.0000000), wk =   0.0078125
        k(  135) = (  -0.5000000   0.3750000   0.0000000), wk =   0.0078125
        k(  136) = (  -0.5000000   0.4375000   0.0000000), wk =   0.0078125
        k(  137) = (  -0.5000000  -0.5000000   0.0000000), wk =   0.0078125
        k(  138) = (  -0.5000000  -0.4375000   0.0000000), wk =   0.0078125
        k(  139) = (  -0.5000000  -0.3750000   0.0000000), wk =   0.0078125
        k(  140) = (  -0.5000000  -0.3125000   0.0000000), wk =   0.0078125
        k(  141) = (  -0.5000000  -0.2500000   0.0000000), wk =   0.0078125
        k(  142) = (  -0.5000000  -0.1875000   0.0000000), wk =   0.0078125
        k(  143) = (  -0.5000000  -0.1250000   0.0000000), wk =   0.0078125
        k(  144) = (  -0.5000000  -0.0625000   0.0000000), wk =   0.0078125
        k(  145) = (  -0.4375000   0.0000000   0.0000000), wk =   0.0078125
        k(  146) = (  -0.4375000   0.0625000   0.0000000), wk =   0.0078125
        k(  147) = (  -0.4375000   0.1250000   0.0000000), wk =   0.0078125
        k(  148) = (  -0.4375000   0.1875000   0.0000000), wk =   0.0078125
        k(  149) = (  -0.4375000   0.2500000   0.0000000), wk =   0.0078125
        k(  150) = (  -0.4375000   0.3125000   0.0000000), wk =   0.0078125
        k(  151) = (  -0.4375000   0.3750000   0.0000000), wk =   0.0078125
        k(  152) = (  -0.4375000   0.4375000   0.0000000), wk =   0.0078125
        k(  153) = (  -0.4375000  -0.5000000   0.0000000), wk =   0.0078125
        k(  154) = (  -0.4375000  -0.4375000   0.0000000), wk =   0.0078125
        k(  155) = (  -0.4375000  -0.3750000   0.0000000), wk =   0.0078125
        k(  156) = (  -0.4375000  -0.3125000   0.0000000), wk =   0.0078125
        k(  157) = (  -0.4375000  -0.2500000   0.0000000), wk =   0.0078125
        k(  158) = (  -0.4375000  -0.1875000   0.0000000), wk =   0.0078125
        k(  159) = (  -0.4375000  -0.1250000   0.0000000), wk =   0.0078125
        k(  160) = (  -0.4375000  -0.0625000   0.0000000), wk =   0.0078125
        k(  161) = (  -0.3750000   0.0000000   0.0000000), wk =   0.0078125
        k(  162) = (  -0.3750000   0.0625000   0.0000000), wk =   0.0078125
        k(  163) = (  -0.3750000   0.1250000   0.0000000), wk =   0.0078125
        k(  164) = (  -0.3750000   0.1875000   0.0000000), wk =   0.0078125
        k(  165) = (  -0.3750000   0.2500000   0.0000000), wk =   0.0078125
        k(  166) = (  -0.3750000   0.3125000   0.0000000), wk =   0.0078125
        k(  167) = (  -0.3750000   0.3750000   0.0000000), wk =   0.0078125
        k(  168) = (  -0.3750000   0.4375000   0.0000000), wk =   0.0078125
        k(  169) = (  -0.3750000  -0.5000000   0.0000000), wk =   0.0078125
        k(  170) = (  -0.3750000  -0.4375000   0.0000000), wk =   0.0078125
        k(  171) = (  -0.3750000  -0.3750000   0.0000000), wk =   0.0078125
        k(  172) = (  -0.3750000  -0.3125000   0.0000000), wk =   0.0078125
        k(  173) = (  -0.3750000  -0.2500000   0.0000000), wk =   0.0078125
        k(  174) = (  -0.3750000  -0.1875000   0.0000000), wk =   0.0078125
        k(  175) = (  -0.3750000  -0.1250000   0.0000000), wk =   0.0078125
        k(  176) = (  -0.3750000  -0.0625000   0.0000000), wk =   0.0078125
        k(  177) = (  -0.3125000   0.0000000   0.0000000), wk =   0.0078125
        k(  178) = (  -0.3125000   0.0625000   0.0000000), wk =   0.0078125
        k(  179) = (  -0.3125000   0.1250000   0.0000000), wk =   0.0078125
        k(  180) = (  -0.3125000   0.1875000   0.0000000), wk =   0.0078125
        k(  181) = (  -0.3125000   0.2500000   0.0000000), wk =   0.0078125
        k(  182) = (  -0.3125000   0.3125000   0.0000000), wk =   0.0078125
        k(  183) = (  -0.3125000   0.3750000   0.0000000), wk =   0.0078125
        k(  184) = (  -0.3125000   0.4375000   0.0000000), wk =   0.0078125
        k(  185) = (  -0.3125000  -0.5000000   0.0000000), wk =   0.0078125
        k(  186) = (  -0.3125000  -0.4375000   0.0000000), wk =   0.0078125
        k(  187) = (  -0.3125000  -0.3750000   0.0000000), wk =   0.0078125
        k(  188) = (  -0.3125000  -0.3125000   0.0000000), wk =   0.0078125
        k(  189) = (  -0.3125000  -0.2500000   0.0000000), wk =   0.0078125
        k(  190) = (  -0.3125000  -0.1875000   0.0000000), wk =   0.0078125
        k(  191) = (  -0.3125000  -0.1250000   0.0000000), wk =   0.0078125
        k(  192) = (  -0.3125000  -0.0625000   0.0000000), wk =   0.0078125
        k(  193) = (  -0.2500000   0.0000000   0.0000000), wk =   0.0078125
        k(  194) = (  -0.2500000   0.0625000   0.0000000), wk =   0.0078125
        k(  195) = (  -0.2500000   0.1250000   0.0000000), wk =   0.0078125
        k(  196) = (  -0.2500000   0.1875000   0.0000000), wk =   0.0078125
        k(  197) = (  -0.2500000   0.2500000   0.0000000), wk =   0.0078125
        k(  198) = (  -0.2500000   0.3125000   0.0000000), wk =   0.0078125
        k(  199) = (  -0.2500000   0.3750000   0.0000000), wk =   0.0078125
        k(  200) = (  -0.2500000   0.4375000   0.0000000), wk =   0.0078125
        k(  201) = (  -0.2500000  -0.5000000   0.0000000), wk =   0.0078125
        k(  202) = (  -0.2500000  -0.4375000   0.0000000), wk =   0.0078125
        k(  203) = (  -0.2500000  -0.3750000   0.0000000), wk =   0.0078125
        k(  204) = (  -0.2500000  -0.3125000   0.0000000), wk =   0.0078125
        k(  205) = (  -0.2500000  -0.2500000   0.0000000), wk =   0.0078125
        k(  206) = (  -0.2500000  -0.1875000   0.0000000), wk =   0.0078125
        k(  207) = (  -0.2500000  -0.1250000   0.0000000), wk =   0.0078125
        k(  208) = (  -0.2500000  -0.0625000   0.0000000), wk =   0.0078125
        k(  209) = (  -0.1875000   0.0000000   0.0000000), wk =   0.0078125
        k(  210) = (  -0.1875000   0.0625000   0.0000000), wk =   0.0078125
        k(  211) = (  -0.1875000   0.1250000   0.0000000), wk =   0.0078125
        k(  212) = (  -0.1875000   0.1875000   0.0000000), wk =   0.0078125
        k(  213) = (  -0.1875000   0.2500000   0.0000000), wk =   0.0078125
        k(  214) = (  -0.1875000   0.3125000   0.0000000), wk =   0.0078125
        k(  215) = (  -0.1875000   0.3750000   0.0000000), wk =   0.0078125
        k(  216) = (  -0.1875000   0.4375000   0.0000000), wk =   0.0078125
        k(  217) = (  -0.1875000  -0.5000000   0.0000000), wk =   0.0078125
        k(  218) = (  -0.1875000  -0.4375000   0.0000000), wk =   0.0078125
        k(  219) = (  -0.1875000  -0.3750000   0.0000000), wk =   0.0078125
        k(  220) = (  -0.1875000  -0.3125000   0.0000000), wk =   0.0078125
        k(  221) = (  -0.1875000  -0.2500000   0.0000000), wk =   0.0078125
        k(  222) = (  -0.1875000  -0.1875000   0.0000000), wk =   0.0078125
        k(  223) = (  -0.1875000  -0.1250000   0.0000000), wk =   0.0078125
        k(  224) = (  -0.1875000  -0.0625000   0.0000000), wk =   0.0078125
        k(  225) = (  -0.1250000   0.0000000   0.0000000), wk =   0.0078125
        k(  226) = (  -0.1250000   0.0625000   0.0000000), wk =   0.0078125
        k(  227) = (  -0.1250000   0.1250000   0.0000000), wk =   0.0078125
        k(  228) = (  -0.1250000   0.1875000   0.0000000), wk =   0.0078125
        k(  229) = (  -0.1250000   0.2500000   0.0000000), wk =   0.0078125
        k(  230) = (  -0.1250000   0.3125000   0.0000000), wk =   0.0078125
        k(  231) = (  -0.1250000   0.3750000   0.0000000), wk =   0.0078125
        k(  232) = (  -0.1250000   0.4375000   0.0000000), wk =   0.0078125
        k(  233) = (  -0.1250000  -0.5000000   0.0000000), wk =   0.0078125
        k(  234) = (  -0.1250000  -0.4375000   0.0000000), wk =   0.0078125
        k(  235) = (  -0.1250000  -0.3750000   0.0000000), wk =   0.0078125
        k(  236) = (  -0.1250000  -0.3125000   0.0000000), wk =   0.0078125
        k(  237) = (  -0.1250000  -0.2500000   0.0000000), wk =   0.0078125
        k(  238) = (  -0.1250000  -0.1875000   0.0000000), wk =   0.0078125
        k(  239) = (  -0.1250000  -0.1250000   0.0000000), wk =   0.0078125
        k(  240) = (  -0.1250000  -0.0625000   0.0000000), wk =   0.0078125
        k(  241) = (  -0.0625000   0.0000000   0.0000000), wk =   0.0078125
        k(  242) = (  -0.0625000   0.0625000   0.0000000), wk =   0.0078125
        k(  243) = (  -0.0625000   0.1250000   0.0000000), wk =   0.0078125
        k(  244) = (  -0.0625000   0.1875000   0.0000000), wk =   0.0078125
        k(  245) = (  -0.0625000   0.2500000   0.0000000), wk =   0.0078125
        k(  246) = (  -0.0625000   0.3125000   0.0000000), wk =   0.0078125
        k(  247) = (  -0.0625000   0.3750000   0.0000000), wk =   0.0078125
        k(  248) = (  -0.0625000   0.4375000   0.0000000), wk =   0.0078125
        k(  249) = (  -0.0625000  -0.5000000   0.0000000), wk =   0.0078125
        k(  250) = (  -0.0625000  -0.4375000   0.0000000), wk =   0.0078125
        k(  251) = (  -0.0625000  -0.3750000   0.0000000), wk =   0.0078125
        k(  252) = (  -0.0625000  -0.3125000   0.0000000), wk =   0.0078125
        k(  253) = (  -0.0625000  -0.2500000   0.0000000), wk =   0.0078125
        k(  254) = (  -0.0625000  -0.1875000   0.0000000), wk =   0.0078125
        k(  255) = (  -0.0625000  -0.1250000   0.0000000), wk =   0.0078125
        k(  256) = (  -0.0625000  -0.0625000   0.0000000), wk =   0.0078125

     Dense  grid:    46525 G-vectors     FFT dimensions: (  24,  24, 192)

     Dynamical RAM for                 wfc:       0.22 MB

     Dynamical RAM for     wfc (w. buffer):       0.22 MB

     Dynamical RAM for           str. fact:       0.18 MB

     Dynamical RAM for           local pot:       0.00 MB

     Dynamical RAM for          nlocal pot:       0.35 MB

     Dynamical RAM for                qrad:       0.71 MB

     Dynamical RAM for          rho,v,vnew:       0.58 MB

     Dynamical RAM for           G-vectors:       0.38 MB

     Dynamical RAM for          h,s,v(r/c):       0.02 MB

     Dynamical RAM for          <psi|beta>:       0.01 MB

     Dynamical RAM for                 psi:       0.44 MB

     Dynamical RAM for                hpsi:       0.44 MB

     Dynamical RAM for      wfcinit/wfcrot:       0.45 MB

     Estimated static dynamical RAM per process >       3.22 MB

     Estimated max dynamical RAM per process >       4.13 MB

     Estimated total dynamical RAM >      33.08 MB

     The potential is recalculated from file :
     ./tmp/BN2L_AA1_PBE_vdW.save/charge-density

     Starting wfcs are   16 randomized atomic wfcs +    4 random wfcs

     Band Structure Calculation
     Davidson diagonalization with overlap

     Computing kpt #:     1  of   256
     total cpu time spent up to now is        0.9 secs

     Computing kpt #:     2  of   256
     total cpu time spent up to now is        1.1 secs

     Computing kpt #:     3  of   256
     total cpu time spent up to now is        1.3 secs

     Computing kpt #:     4  of   256
     total cpu time spent up to now is        1.5 secs

     Computing kpt #:     5  of   256
     total cpu time spent up to now is        1.8 secs

     Computing kpt #:     6  of   256
     total cpu time spent up to now is        2.0 secs

     Computing kpt #:     7  of   256
     total cpu time spent up to now is        2.2 secs

     Computing kpt #:     8  of   256
     total cpu time spent up to now is        2.4 secs

     Computing kpt #:     9  of   256
     total cpu time spent up to now is        2.6 secs

     Computing kpt #:    10  of   256
     total cpu time spent up to now is        2.9 secs

     Computing kpt #:    11  of   256
     total cpu time spent up to now is        3.1 secs

     Computing kpt #:    12  of   256
     total cpu time spent up to now is        3.3 secs

     Computing kpt #:    13  of   256
     total cpu time spent up to now is        3.5 secs

     Computing kpt #:    14  of   256
     total cpu time spent up to now is        3.7 secs

     Computing kpt #:    15  of   256
     total cpu time spent up to now is        4.0 secs

     Computing kpt #:    16  of   256
     total cpu time spent up to now is        4.1 secs

     Computing kpt #:    17  of   256
     total cpu time spent up to now is        4.3 secs

     Computing kpt #:    18  of   256
     total cpu time spent up to now is        4.5 secs

     Computing kpt #:    19  of   256
     total cpu time spent up to now is        4.8 secs

     Computing kpt #:    20  of   256
     total cpu time spent up to now is        5.0 secs

     Computing kpt #:    21  of   256
     total cpu time spent up to now is        5.3 secs

     Computing kpt #:    22  of   256
     total cpu time spent up to now is        5.5 secs

     Computing kpt #:    23  of   256
     total cpu time spent up to now is        5.7 secs

     Computing kpt #:    24  of   256
     total cpu time spent up to now is        6.0 secs

     Computing kpt #:    25  of   256
     total cpu time spent up to now is        6.2 secs

     Computing kpt #:    26  of   256
     total cpu time spent up to now is        6.4 secs

     Computing kpt #:    27  of   256
     total cpu time spent up to now is        6.7 secs

     Computing kpt #:    28  of   256
     total cpu time spent up to now is        6.9 secs

     Computing kpt #:    29  of   256
     total cpu time spent up to now is        7.2 secs

     Computing kpt #:    30  of   256
     total cpu time spent up to now is        7.4 secs

     Computing kpt #:    31  of   256
     total cpu time spent up to now is        7.6 secs

     Computing kpt #:    32  of   256
     total cpu time spent up to now is        7.8 secs

     Computing kpt #:    33  of   256
     total cpu time spent up to now is        8.0 secs

     Computing kpt #:    34  of   256
     total cpu time spent up to now is        8.2 secs

     Computing kpt #:    35  of   256
     total cpu time spent up to now is        8.4 secs

     Computing kpt #:    36  of   256
     total cpu time spent up to now is        8.7 secs

     Computing kpt #:    37  of   256
     total cpu time spent up to now is        8.8 secs

     Computing kpt #:    38  of   256
     total cpu time spent up to now is        9.1 secs

     Computing kpt #:    39  of   256
     total cpu time spent up to now is        9.3 secs

     Computing kpt #:    40  of   256
     total cpu time spent up to now is        9.5 secs

     Computing kpt #:    41  of   256
     total cpu time spent up to now is        9.8 secs

     Computing kpt #:    42  of   256
     total cpu time spent up to now is       10.0 secs

     Computing kpt #:    43  of   256
     total cpu time spent up to now is       10.2 secs

     Computing kpt #:    44  of   256
     total cpu time spent up to now is       10.4 secs

     Computing kpt #:    45  of   256
     total cpu time spent up to now is       10.7 secs

     Computing kpt #:    46  of   256
     total cpu time spent up to now is       10.9 secs

     Computing kpt #:    47  of   256
     total cpu time spent up to now is       11.1 secs

     Computing kpt #:    48  of   256
     total cpu time spent up to now is       11.4 secs

     Computing kpt #:    49  of   256
     total cpu time spent up to now is       11.6 secs

     Computing kpt #:    50  of   256
     total cpu time spent up to now is       11.9 secs

     Computing kpt #:    51  of   256
     total cpu time spent up to now is       12.1 secs

     Computing kpt #:    52  of   256
     total cpu time spent up to now is       12.3 secs

     Computing kpt #:    53  of   256
     total cpu time spent up to now is       12.4 secs

     Computing kpt #:    54  of   256
     total cpu time spent up to now is       12.6 secs

     Computing kpt #:    55  of   256
     total cpu time spent up to now is       12.8 secs

     Computing kpt #:    56  of   256
     total cpu time spent up to now is       13.1 secs

     Computing kpt #:    57  of   256
     total cpu time spent up to now is       13.3 secs

     Computing kpt #:    58  of   256
     total cpu time spent up to now is       13.5 secs

     Computing kpt #:    59  of   256
     total cpu time spent up to now is       13.6 secs

     Computing kpt #:    60  of   256
     total cpu time spent up to now is       13.9 secs

     Computing kpt #:    61  of   256
     total cpu time spent up to now is       14.1 secs

     Computing kpt #:    62  of   256
     total cpu time spent up to now is       14.4 secs

     Computing kpt #:    63  of   256
     total cpu time spent up to now is       14.6 secs

     Computing kpt #:    64  of   256
     total cpu time spent up to now is       14.8 secs

     Computing kpt #:    65  of   256
     total cpu time spent up to now is       15.1 secs

     Computing kpt #:    66  of   256
     total cpu time spent up to now is       15.4 secs

     Computing kpt #:    67  of   256
     total cpu time spent up to now is       15.5 secs

     Computing kpt #:    68  of   256
     total cpu time spent up to now is       15.7 secs

     Computing kpt #:    69  of   256
     total cpu time spent up to now is       15.9 secs

     Computing kpt #:    70  of   256
     total cpu time spent up to now is       16.1 secs

     Computing kpt #:    71  of   256
     total cpu time spent up to now is       16.4 secs

     Computing kpt #:    72  of   256
     total cpu time spent up to now is       16.6 secs

     Computing kpt #:    73  of   256
     total cpu time spent up to now is       16.8 secs

     Computing kpt #:    74  of   256
     total cpu time spent up to now is       17.0 secs

     Computing kpt #:    75  of   256
     total cpu time spent up to now is       17.2 secs

     Computing kpt #:    76  of   256
     total cpu time spent up to now is       17.4 secs

     Computing kpt #:    77  of   256
     total cpu time spent up to now is       17.7 secs

     Computing kpt #:    78  of   256
     total cpu time spent up to now is       18.0 secs

     Computing kpt #:    79  of   256
     total cpu time spent up to now is       18.2 secs

     Computing kpt #:    80  of   256
     total cpu time spent up to now is       18.5 secs

     Computing kpt #:    81  of   256
     total cpu time spent up to now is       18.7 secs

     Computing kpt #:    82  of   256
     total cpu time spent up to now is       19.0 secs

     Computing kpt #:    83  of   256
     total cpu time spent up to now is       19.2 secs

     Computing kpt #:    84  of   256
     total cpu time spent up to now is       19.4 secs

     Computing kpt #:    85  of   256
     total cpu time spent up to now is       19.6 secs

     Computing kpt #:    86  of   256
     total cpu time spent up to now is       19.9 secs

     Computing kpt #:    87  of   256
     total cpu time spent up to now is       20.1 secs

     Computing kpt #:    88  of   256
     total cpu time spent up to now is       20.4 secs

     Computing kpt #:    89  of   256
     total cpu time spent up to now is       20.6 secs

     Computing kpt #:    90  of   256
     total cpu time spent up to now is       20.8 secs

     Computing kpt #:    91  of   256
     total cpu time spent up to now is       21.1 secs

     Computing kpt #:    92  of   256
     total cpu time spent up to now is       21.3 secs

     Computing kpt #:    93  of   256
     total cpu time spent up to now is       21.6 secs

     Computing kpt #:    94  of   256
     total cpu time spent up to now is       21.8 secs

     Computing kpt #:    95  of   256
     total cpu time spent up to now is       22.0 secs

     Computing kpt #:    96  of   256
     total cpu time spent up to now is       22.2 secs

     Computing kpt #:    97  of   256
     total cpu time spent up to now is       22.3 secs

     Computing kpt #:    98  of   256
     total cpu time spent up to now is       22.5 secs

     Computing kpt #:    99  of   256
     total cpu time spent up to now is       22.7 secs

     Computing kpt #:   100  of   256
     total cpu time spent up to now is       22.9 secs

     Computing kpt #:   101  of   256
     total cpu time spent up to now is       23.2 secs

     Computing kpt #:   102  of   256
     total cpu time spent up to now is       23.4 secs

     Computing kpt #:   103  of   256
     total cpu time spent up to now is       23.7 secs

     Computing kpt #:   104  of   256
     total cpu time spent up to now is       23.9 secs

     Computing kpt #:   105  of   256
     total cpu time spent up to now is       24.1 secs

     Computing kpt #:   106  of   256
     total cpu time spent up to now is       24.3 secs

     Computing kpt #:   107  of   256
     total cpu time spent up to now is       24.4 secs

     Computing kpt #:   108  of   256
     total cpu time spent up to now is       24.7 secs

     Computing kpt #:   109  of   256
     total cpu time spent up to now is       24.9 secs

     Computing kpt #:   110  of   256
     total cpu time spent up to now is       25.1 secs

     Computing kpt #:   111  of   256
     total cpu time spent up to now is       25.2 secs

     Computing kpt #:   112  of   256
     total cpu time spent up to now is       25.5 secs

     Computing kpt #:   113  of   256
     total cpu time spent up to now is       25.6 secs

     Computing kpt #:   114  of   256
     total cpu time spent up to now is       25.9 secs

     Computing kpt #:   115  of   256
     total cpu time spent up to now is       26.1 secs

     Computing kpt #:   116  of   256
     total cpu time spent up to now is       26.3 secs

     Computing kpt #:   117  of   256
     total cpu time spent up to now is       26.5 secs

     Computing kpt #:   118  of   256
     total cpu time spent up to now is       26.7 secs

     Computing kpt #:   119  of   256
     total cpu time spent up to now is       27.0 secs

     Computing kpt #:   120  of   256
     total cpu time spent up to now is       27.2 secs

     Computing kpt #:   121  of   256
     total cpu time spent up to now is       27.4 secs

     Computing kpt #:   122  of   256
     total cpu time spent up to now is       27.6 secs

     Computing kpt #:   123  of   256
     total cpu time spent up to now is       27.9 secs

     Computing kpt #:   124  of   256
     total cpu time spent up to now is       28.1 secs

     Computing kpt #:   125  of   256
     total cpu time spent up to now is       28.3 secs

     Computing kpt #:   126  of   256
     total cpu time spent up to now is       28.5 secs

     Computing kpt #:   127  of   256
     total cpu time spent up to now is       28.7 secs

     Computing kpt #:   128  of   256
     total cpu time spent up to now is       29.0 secs

     Computing kpt #:   129  of   256
     total cpu time spent up to now is       29.2 secs

     Computing kpt #:   130  of   256
     total cpu time spent up to now is       29.4 secs

     Computing kpt #:   131  of   256
     total cpu time spent up to now is       29.6 secs

     Computing kpt #:   132  of   256
     total cpu time spent up to now is       29.7 secs

     Computing kpt #:   133  of   256
     total cpu time spent up to now is       30.0 secs

     Computing kpt #:   134  of   256
     total cpu time spent up to now is       30.2 secs

     Computing kpt #:   135  of   256
     total cpu time spent up to now is       30.3 secs

     Computing kpt #:   136  of   256
     total cpu time spent up to now is       30.6 secs

     Computing kpt #:   137  of   256
     total cpu time spent up to now is       30.8 secs

     Computing kpt #:   138  of   256
     total cpu time spent up to now is       31.0 secs

     Computing kpt #:   139  of   256
     total cpu time spent up to now is       31.2 secs

     Computing kpt #:   140  of   256
     total cpu time spent up to now is       31.4 secs

     Computing kpt #:   141  of   256
     total cpu time spent up to now is       31.7 secs

     Computing kpt #:   142  of   256
     total cpu time spent up to now is       31.9 secs

     Computing kpt #:   143  of   256
     total cpu time spent up to now is       32.1 secs

     Computing kpt #:   144  of   256
     total cpu time spent up to now is       32.3 secs

     Computing kpt #:   145  of   256
     total cpu time spent up to now is       32.5 secs

     Computing kpt #:   146  of   256
     total cpu time spent up to now is       32.7 secs

     Computing kpt #:   147  of   256
     total cpu time spent up to now is       33.0 secs

     Computing kpt #:   148  of   256
     total cpu time spent up to now is       33.1 secs

     Computing kpt #:   149  of   256
     total cpu time spent up to now is       33.3 secs

     Computing kpt #:   150  of   256
     total cpu time spent up to now is       33.5 secs

     Computing kpt #:   151  of   256
     total cpu time spent up to now is       33.7 secs

     Computing kpt #:   152  of   256
     total cpu time spent up to now is       33.9 secs

     Computing kpt #:   153  of   256
     total cpu time spent up to now is       34.2 secs

     Computing kpt #:   154  of   256
     total cpu time spent up to now is       34.4 secs

     Computing kpt #:   155  of   256
     total cpu time spent up to now is       34.6 secs

     Computing kpt #:   156  of   256
     total cpu time spent up to now is       34.8 secs

     Computing kpt #:   157  of   256
     total cpu time spent up to now is       35.0 secs

     Computing kpt #:   158  of   256
     total cpu time spent up to now is       35.2 secs

     Computing kpt #:   159  of   256
     total cpu time spent up to now is       35.5 secs

     Computing kpt #:   160  of   256
     total cpu time spent up to now is       35.7 secs

     Computing kpt #:   161  of   256
     total cpu time spent up to now is       35.9 secs

     Computing kpt #:   162  of   256
     total cpu time spent up to now is       36.1 secs

     Computing kpt #:   163  of   256
     total cpu time spent up to now is       36.3 secs

     Computing kpt #:   164  of   256
     total cpu time spent up to now is       36.4 secs

     Computing kpt #:   165  of   256
     total cpu time spent up to now is       36.6 secs

     Computing kpt #:   166  of   256
     total cpu time spent up to now is       36.9 secs

     Computing kpt #:   167  of   256
     total cpu time spent up to now is       37.1 secs

     Computing kpt #:   168  of   256
     total cpu time spent up to now is       37.3 secs

     Computing kpt #:   169  of   256
     total cpu time spent up to now is       37.5 secs

     Computing kpt #:   170  of   256
     total cpu time spent up to now is       37.7 secs

     Computing kpt #:   171  of   256
     total cpu time spent up to now is       37.9 secs

     Computing kpt #:   172  of   256
     total cpu time spent up to now is       38.2 secs

     Computing kpt #:   173  of   256
     total cpu time spent up to now is       38.4 secs

     Computing kpt #:   174  of   256
     total cpu time spent up to now is       38.7 secs

     Computing kpt #:   175  of   256
     total cpu time spent up to now is       38.9 secs

     Computing kpt #:   176  of   256
     total cpu time spent up to now is       39.1 secs

     Computing kpt #:   177  of   256
     total cpu time spent up to now is       39.3 secs

     Computing kpt #:   178  of   256
     total cpu time spent up to now is       39.6 secs

     Computing kpt #:   179  of   256
     total cpu time spent up to now is       39.8 secs

     Computing kpt #:   180  of   256
     total cpu time spent up to now is       40.0 secs

     Computing kpt #:   181  of   256
     total cpu time spent up to now is       40.2 secs

     Computing kpt #:   182  of   256
     total cpu time spent up to now is       40.5 secs

     Computing kpt #:   183  of   256
     total cpu time spent up to now is       40.7 secs

     Computing kpt #:   184  of   256
     total cpu time spent up to now is       40.9 secs

     Computing kpt #:   185  of   256
     total cpu time spent up to now is       41.2 secs

     Computing kpt #:   186  of   256
     total cpu time spent up to now is       41.4 secs

     Computing kpt #:   187  of   256
     total cpu time spent up to now is       41.6 secs

     Computing kpt #:   188  of   256
     total cpu time spent up to now is       41.9 secs

     Computing kpt #:   189  of   256
     total cpu time spent up to now is       42.1 secs

     Computing kpt #:   190  of   256
     total cpu time spent up to now is       42.3 secs

     Computing kpt #:   191  of   256
     total cpu time spent up to now is       42.5 secs

     Computing kpt #:   192  of   256
     total cpu time spent up to now is       42.8 secs

     Computing kpt #:   193  of   256
     total cpu time spent up to now is       43.0 secs

     Computing kpt #:   194  of   256
     total cpu time spent up to now is       43.3 secs

     Computing kpt #:   195  of   256
     total cpu time spent up to now is       43.6 secs

     Computing kpt #:   196  of   256
     total cpu time spent up to now is       43.9 secs

     Computing kpt #:   197  of   256
     total cpu time spent up to now is       44.2 secs

     Computing kpt #:   198  of   256
     total cpu time spent up to now is       44.4 secs

     Computing kpt #:   199  of   256
     total cpu time spent up to now is       44.6 secs

     Computing kpt #:   200  of   256
     total cpu time spent up to now is       44.8 secs

     Computing kpt #:   201  of   256
     total cpu time spent up to now is       45.0 secs

     Computing kpt #:   202  of   256
     total cpu time spent up to now is       45.2 secs

     Computing kpt #:   203  of   256
     total cpu time spent up to now is       45.5 secs

     Computing kpt #:   204  of   256
     total cpu time spent up to now is       45.7 secs

     Computing kpt #:   205  of   256
     total cpu time spent up to now is       45.9 secs

     Computing kpt #:   206  of   256
     total cpu time spent up to now is       46.1 secs

     Computing kpt #:   207  of   256
     total cpu time spent up to now is       46.3 secs

     Computing kpt #:   208  of   256
     total cpu time spent up to now is       46.5 secs

     Computing kpt #:   209  of   256
     total cpu time spent up to now is       46.8 secs

     Computing kpt #:   210  of   256
     total cpu time spent up to now is       46.9 secs

     Computing kpt #:   211  of   256
     total cpu time spent up to now is       47.2 secs

     Computing kpt #:   212  of   256
     total cpu time spent up to now is       47.4 secs

     Computing kpt #:   213  of   256
     total cpu time spent up to now is       47.7 secs

     Computing kpt #:   214  of   256
     total cpu time spent up to now is       47.9 secs

     Computing kpt #:   215  of   256
     total cpu time spent up to now is       48.0 secs

     Computing kpt #:   216  of   256
     total cpu time spent up to now is       48.3 secs

     Computing kpt #:   217  of   256
     total cpu time spent up to now is       48.4 secs

     Computing kpt #:   218  of   256
     total cpu time spent up to now is       48.6 secs

     Computing kpt #:   219  of   256
     total cpu time spent up to now is       48.9 secs

     Computing kpt #:   220  of   256
     total cpu time spent up to now is       49.1 secs

     Computing kpt #:   221  of   256
     total cpu time spent up to now is       49.2 secs

     Computing kpt #:   222  of   256
     total cpu time spent up to now is       49.4 secs

     Computing kpt #:   223  of   256
     total cpu time spent up to now is       49.7 secs

     Computing kpt #:   224  of   256
     total cpu time spent up to now is       49.9 secs

     Computing kpt #:   225  of   256
     total cpu time spent up to now is       50.1 secs

     Computing kpt #:   226  of   256
     total cpu time spent up to now is       50.3 secs

     Computing kpt #:   227  of   256
     total cpu time spent up to now is       50.5 secs

     Computing kpt #:   228  of   256
     total cpu time spent up to now is       50.7 secs

     Computing kpt #:   229  of   256
     total cpu time spent up to now is       51.0 secs

     Computing kpt #:   230  of   256
     total cpu time spent up to now is       51.2 secs

     Computing kpt #:   231  of   256
     total cpu time spent up to now is       51.4 secs

     Computing kpt #:   232  of   256
     total cpu time spent up to now is       51.7 secs

     Computing kpt #:   233  of   256
     total cpu time spent up to now is       51.9 secs

     Computing kpt #:   234  of   256
     total cpu time spent up to now is       52.1 secs

     Computing kpt #:   235  of   256
     total cpu time spent up to now is       52.3 secs

     Computing kpt #:   236  of   256
     total cpu time spent up to now is       52.5 secs

     Computing kpt #:   237  of   256
     total cpu time spent up to now is       52.7 secs

     Computing kpt #:   238  of   256
     total cpu time spent up to now is       52.9 secs

     Computing kpt #:   239  of   256
     total cpu time spent up to now is       53.2 secs

     Computing kpt #:   240  of   256
     total cpu time spent up to now is       53.4 secs

     Computing kpt #:   241  of   256
     total cpu time spent up to now is       53.6 secs

     Computing kpt #:   242  of   256
     total cpu time spent up to now is       53.8 secs

     Computing kpt #:   243  of   256
     total cpu time spent up to now is       54.1 secs

     Computing kpt #:   244  of   256
     total cpu time spent up to now is       54.3 secs

     Computing kpt #:   245  of   256
     total cpu time spent up to now is       54.5 secs

     Computing kpt #:   246  of   256
     total cpu time spent up to now is       54.8 secs

     Computing kpt #:   247  of   256
     total cpu time spent up to now is       55.0 secs

     Computing kpt #:   248  of   256
     total cpu time spent up to now is       55.2 secs

     Computing kpt #:   249  of   256
     total cpu time spent up to now is       55.5 secs

     Computing kpt #:   250  of   256
     total cpu time spent up to now is       55.7 secs

     Computing kpt #:   251  of   256
     total cpu time spent up to now is       55.9 secs

     Computing kpt #:   252  of   256
     total cpu time spent up to now is       56.2 secs

     Computing kpt #:   253  of   256
     total cpu time spent up to now is       56.4 secs

     Computing kpt #:   254  of   256
     total cpu time spent up to now is       56.6 secs

     Computing kpt #:   255  of   256
     total cpu time spent up to now is       56.9 secs

     Computing kpt #:   256  of   256
     total cpu time spent up to now is       57.1 secs

     ethr =  5.00E-06,  avg # of iterations = 25.6

     total cpu time spent up to now is       57.1 secs

     End of band structure calculation

          k = 0.0000 0.0000 0.0000 (  5775 PWs)   bands (ev):

   -20.0461 -19.8897  -8.0925  -7.0089  -3.7386  -3.7386  -3.7184  -3.7183
     2.4614   2.9501   3.5925   4.7349   4.9905   6.7250   7.3422   9.1964
     9.1964   9.2140   9.2644   9.2645

     occupation numbers 
     1.0000   1.0000   1.0000   1.0000   1.0000   1.0000   1.0000   1.0000
     0.0000   0.0000   0.0000   0.0000   0.0000   0.0000   0.0000   0.0000
     0.0000   0.0000   0.0000   0.0000

          k = 0.0000 0.0722 0.0000 (  5791 PWs)   bands (ev):

   -19.9708 -19.8156  -7.9901  -6.9117  -4.0568  -4.0390  -3.8871  -3.8667
     2.5922   3.0706   3.7183   4.8560   5.1108   6.8049   7.4580   9.1185
     9.1774   9.2719   9.5307   9.5976

     occupation numbers 
     1.0000   1.0000   1.0000   1.0000   1.0000   1.0000   1.0000   1.0000
     0.0000   0.0000   0.0000   0.0000   0.0000   0.0000   0.0000   0.0000
     0.0000   0.0000   0.0000   0.0000

          k = 0.0000 0.1443 0.0000 (  5792 PWs)   bands (ev):

   -19.7467 -19.5958  -7.6858  -6.6239  -4.9172  -4.8993  -4.2803  -4.2559
     2.9706   3.4261   4.0916   5.2126   5.4463   7.0026   7.7565   8.9226
     9.0090   9.3517   9.7243  10.4744

     occupation numbers 
     1.0000   1.0000   1.0000   1.0000   1.0000   1.0000   1.0000   1.0000
     0.0000   0.0000   0.0000   0.0000   0.0000   0.0000   0.0000   0.0000
     0.0000   0.0000   0.0000   0.0000

          k = 0.0000 0.2165 0.0000 (  5790 PWs)   bands (ev):

   -19.3815 -19.2378  -7.1886  -6.2181  -6.0957  -6.0533  -4.8042  -4.7765
     3.5740   3.9992   4.7047   5.7803   5.9019   7.1683   7.9750   8.4719
     8.7899   9.3109   9.4814  11.6021

     occupation numbers 
     1.0000   1.0000   1.0000   1.0000   1.0000   1.0000   1.0000   1.0000
     0.0000   0.0000   0.0000   0.0000   0.0000   0.0000   0.0000   0.0000
     0.0000   0.0000   0.0000   0.0000

          k = 0.0000 0.2887 0.0000 (  5810 PWs)   bands (ev):

   -18.8907 -18.7573  -7.4826  -7.4524  -6.4949  -5.5086  -5.3496  -5.3186
     4.3843   4.7215   5.5383   6.0296   6.3836   7.2700   7.3620   8.2263
     8.7465   9.7775   9.8036  12.4227

     occupation numbers 
     1.0000   1.0000   1.0000   1.0000   1.0000   1.0000   1.0000   1.0000
     0.0000   0.0000   0.0000   0.0000   0.0000   0.0000   0.0000   0.0000
     0.0000   0.0000   0.0000   0.0000

          k = 0.0000 0.3608 0.0000 (  5836 PWs)   bands (ev):

   -18.3047 -18.1862  -8.8287  -8.7873  -5.8351  -5.8023  -5.6714  -4.7509
     4.8392   5.2062   5.4046   6.3720   6.6390   7.6379   7.8012   8.3251
     9.0731  10.4519  10.7227  13.1299

     occupation numbers 
     1.0000   1.0000   1.0000   1.0000   1.0000   1.0000   1.0000   1.0000
     0.0000   0.0000   0.0000   0.0000   0.0000   0.0000   0.0000   0.0000
     0.0000   0.0000   0.0000   0.0000

          k = 0.0000 0.4330 0.0000 (  5866 PWs)   bands (ev):

   -17.6850 -17.5881 -10.0293  -9.9836  -6.2106  -6.1769  -4.7636  -3.9492
     3.6453   4.1833   6.4112   7.1938   7.8188   7.9734   8.4570   9.3166
     9.8938  11.3485  11.8934  13.5958

     occupation numbers 
     1.0000   1.0000   1.0000   1.0000   1.0000   1.0000   1.0000   1.0000
     0.0000   0.0000   0.0000   0.0000   0.0000   0.0000   0.0000   0.0000
     0.0000   0.0000   0.0000   0.0000

          k = 0.0000 0.5052 0.0000 (  5862 PWs)   bands (ev):

   -17.1566 -17.0915 -10.9087 -10.8673  -6.4461  -6.4116  -3.9350  -3.2805
     2.5565   3.2201   7.0984   7.4843   8.9383   9.0788   9.7476  10.7679
    10.9744  12.1257  12.2214  12.9233

     occupation numbers 
     1.0000   1.0000   1.0000   1.0000   1.0000   1.0000   1.0000   1.0000
     0.0000   0.0000   0.0000   0.0000   0.0000   0.0000   0.0000   0.0000
     0.0000   0.0000   0.0000   0.0000

          k = 0.0000-0.5774 0.0000 (  5820 PWs)   bands (ev):

   -16.9301 -16.8917 -11.2428 -11.2084  -6.5263  -6.4913  -3.5507  -3.0153
     2.1084   2.8120   7.2741   7.4953  10.1842  10.5381  10.6600  10.7082
    11.4730  11.5733  12.0597  12.3444

     occupation numbers 
     1.0000   1.0000   1.0000   1.0000   1.0000   1.0000   1.0000   1.0000
     0.0000   0.0000   0.0000   0.0000   0.0000   0.0000   0.0000   0.0000
     0.0000   0.0000   0.0000   0.0000

          k = 0.0000-0.5052 0.0000 (  5862 PWs)   bands (ev):

   -17.1566 -17.0915 -10.9087 -10.8673  -6.4461  -6.4116  -3.9350  -3.2805
     2.5565   3.2201   7.0984   7.4843   8.9383   9.0788   9.7476  10.7679
    10.9744  12.1257  12.2214  12.9235

     occupation numbers 
     1.0000   1.0000   1.0000   1.0000   1.0000   1.0000   1.0000   1.0000
     0.0000   0.0000   0.0000   0.0000   0.0000   0.0000   0.0000   0.0000
     0.0000   0.0000   0.0000   0.0000

          k = 0.0000-0.4330 0.0000 (  5866 PWs)   bands (ev):

   -17.6850 -17.5881 -10.0293  -9.9836  -6.2106  -6.1769  -4.7636  -3.9492
     3.6453   4.1833   6.4112   7.1938   7.8188   7.9734   8.4570   9.3166
     9.8938  11.3485  11.8934  13.5957

     occupation numbers 
     1.0000   1.0000   1.0000   1.0000   1.0000   1.0000   1.0000   1.0000
     0.0000   0.0000   0.0000   0.0000   0.0000   0.0000   0.0000   0.0000
     0.0000   0.0000   0.0000   0.0000

          k = 0.0000-0.3608 0.0000 (  5836 PWs)   bands (ev):

   -18.3047 -18.1862  -8.8287  -8.7873  -5.8351  -5.8023  -5.6714  -4.7509
     4.8392   5.2062   5.4046   6.3720   6.6390   7.6379   7.8012   8.3251
     9.0731  10.4519  10.7227  13.1308

     occupation numbers 
     1.0000   1.0000   1.0000   1.0000   1.0000   1.0000   1.0000   1.0000
     0.0000   0.0000   0.0000   0.0000   0.0000   0.0000   0.0000   0.0000
     0.0000   0.0000   0.0000   0.0000

          k = 0.0000-0.2887 0.0000 (  5810 PWs)   bands (ev):

   -18.8907 -18.7573  -7.4826  -7.4524  -6.4949  -5.5086  -5.3496  -5.3186
     4.3843   4.7215   5.5383   6.0296   6.3836   7.2700   7.3620   8.2263
     8.7464   9.7775   9.8036  12.4249

     occupation numbers 
     1.0000   1.0000   1.0000   1.0000   1.0000   1.0000   1.0000   1.0000
     0.0000   0.0000   0.0000   0.0000   0.0000   0.0000   0.0000   0.0000
     0.0000   0.0000   0.0000   0.0000

          k = 0.0000-0.2165 0.0000 (  5790 PWs)   bands (ev):

   -19.3815 -19.2378  -7.1886  -6.2181  -6.0957  -6.0533  -4.8042  -4.7765
     3.5740   3.9992   4.7047   5.7803   5.9019   7.1683   7.9750   8.4719
     8.7898   9.3108   9.4813  11.6021

     occupation numbers 
     1.0000   1.0000   1.0000   1.0000   1.0000   1.0000   1.0000   1.0000
     0.0000   0.0000   0.0000   0.0000   0.0000   0.0000   0.0000   0.0000
     0.0000   0.0000   0.0000   0.0000

          k = 0.0000-0.1443 0.0000 (  5792 PWs)   bands (ev):

   -19.7467 -19.5958  -7.6858  -6.6239  -4.9172  -4.8993  -4.2803  -4.2559
     2.9706   3.4261   4.0916   5.2126   5.4463   7.0026   7.7566   8.9226
     9.0090   9.3518   9.7244  10.4744

     occupation numbers 
     1.0000   1.0000   1.0000   1.0000   1.0000   1.0000   1.0000   1.0000
     0.0000   0.0000   0.0000   0.0000   0.0000   0.0000   0.0000   0.0000
     0.0000   0.0000   0.0000   0.0000

          k = 0.0000-0.0722 0.0000 (  5791 PWs)   bands (ev):

   -19.9708 -19.8156  -7.9901  -6.9117  -4.0568  -4.0390  -3.8871  -3.8667
     2.5922   3.0706   3.7183   4.8560   5.1108   6.8049   7.4580   9.1185
     9.1774   9.2719   9.5307   9.5976

     occupation numbers 
     1.0000   1.0000   1.0000   1.0000   1.0000   1.0000   1.0000   1.0000
     0.0000   0.0000   0.0000   0.0000   0.0000   0.0000   0.0000   0.0000
     0.0000   0.0000   0.0000   0.0000

          k = 0.0625 0.0361 0.0000 (  5791 PWs)   bands (ev):

   -19.9708 -19.8156  -7.9901  -6.9117  -4.0568  -4.0390  -3.8871  -3.8667
     2.5922   3.0706   3.7183   4.8560   5.1108   6.8049   7.4580   9.1185
     9.1773   9.2719   9.5307   9.5976

     occupation numbers 
     1.0000   1.0000   1.0000   1.0000   1.0000   1.0000   1.0000   1.0000
     0.0000   0.0000   0.0000   0.0000   0.0000   0.0000   0.0000   0.0000
     0.0000   0.0000   0.0000   0.0000

          k = 0.0625 0.1083 0.0000 (  5767 PWs)   bands (ev):

   -19.8209 -19.6686  -7.7865  -6.7190  -4.6196  -4.6062  -4.1807  -4.1594
     2.8470   3.3087   3.9680   5.0953   5.3404   6.9450   7.6729   9.0904
     9.1801   9.2560   9.7816  10.0611

     occupation numbers 
     1.0000   1.0000   1.0000   1.0000   1.0000   1.0000   1.0000   1.0000
     0.0000   0.0000   0.0000   0.0000   0.0000   0.0000   0.0000   0.0000
     0.0000   0.0000   0.0000   0.0000

          k = 0.0625 0.1804 0.0000 (  5774 PWs)   bands (ev):

   -19.5261 -19.3795  -7.3849  -6.3436  -5.5990  -5.5864  -4.6883  -4.6635
     3.3394   3.7746   4.4621   5.5607   5.7492   7.1308   7.9836   8.9095
     9.0314   9.3270   9.3942  10.6494

     occupation numbers 
     1.0000   1.0000   1.0000   1.0000   1.0000   1.0000   1.0000   1.0000
     0.0000   0.0000   0.0000   0.0000   0.0000   0.0000   0.0000   0.0000
     0.0000   0.0000   0.0000   0.0000

          k = 0.0625 0.2526 0.0000 (  5782 PWs)   bands (ev):

   -19.0972 -18.9593  -6.8905  -6.8509  -6.7223  -5.7742  -5.2645  -5.2348
     4.0515   4.4357   5.1923   6.1059   6.1911   7.2232   7.6569   8.5550
     8.9323   9.5083   9.6422  11.6340

     occupation numbers 
     1.0000   1.0000   1.0000   1.0000   1.0000   1.0000   1.0000   1.0000
     0.0000   0.0000   0.0000   0.0000   0.0000   0.0000   0.0000   0.0000
     0.0000   0.0000   0.0000   0.0000

          k = 0.0625 0.3248 0.0000 (  5827 PWs)   bands (ev):

   -18.5564 -18.4309  -8.1757  -8.1409  -6.0314  -5.8075  -5.7743  -5.0761
     4.9553   5.0411   5.6467   6.1860   6.3433   7.4546   7.6395   8.4898
     9.0742  10.1361  10.2759  12.7090

     occupation numbers 
[...]

          k =-0.1875-0.4691 0.0000 (  5851 PWs)   bands (ev):

   -17.0496 -16.9780 -10.2600 -10.2234  -7.9015  -7.8633  -3.7862  -3.1261
     3.0187   3.4219   8.1210   8.7823   9.4983  10.0672  10.1939  10.6942
    10.9021  11.7146  12.5422  13.1315

     occupation numbers 
     1.0000   1.0000   1.0000   1.0000   1.0000   1.0000   1.0000   1.0000
     0.0000   0.0000   0.0000   0.0000   0.0000   0.0000   0.0000   0.0000
     0.0000   0.0000   0.0000   0.0000

          k =-0.1875-0.3969 0.0000 (  5851 PWs)   bands (ev):

   -17.5960 -17.4981  -9.4301  -9.4093  -7.4665  -7.4331  -4.6392  -3.8289
     4.0095   4.3171   6.8600   7.5280   8.1257   9.2309   9.3054  10.3799
    10.9042  11.0113  11.5695  12.7648

     occupation numbers 
     1.0000   1.0000   1.0000   1.0000   1.0000   1.0000   1.0000   1.0000
     0.0000   0.0000   0.0000   0.0000   0.0000   0.0000   0.0000   0.0000
     0.0000   0.0000   0.0000   0.0000

          k =-0.1875-0.3248 0.0000 (  5828 PWs)   bands (ev):

   -18.1703 -18.0542  -8.5125  -8.5082  -6.8098  -6.7782  -5.4801  -4.5746
     4.9321   5.2024   5.7404   6.5554   6.9208   8.1265   8.3625  10.2154
    10.3536  10.3953  10.5635  11.9462

     occupation numbers 
     1.0000   1.0000   1.0000   1.0000   1.0000   1.0000   1.0000   1.0000
     0.0000   0.0000   0.0000   0.0000   0.0000   0.0000   0.0000   0.0000
     0.0000   0.0000   0.0000   0.0000

          k =-0.1875-0.2526 0.0000 (  5817 PWs)   bands (ev):

   -18.6857 -18.5569  -7.6518  -7.6344  -6.2168  -6.0032  -5.9769  -5.2421
     4.7654   4.9851   5.8400   6.0200   6.4328   7.3914   7.5854   9.2765
     9.5166   9.9602  10.0102  11.6183

     occupation numbers 
     1.0000   1.0000   1.0000   1.0000   1.0000   1.0000   1.0000   1.0000
     0.0000   0.0000   0.0000   0.0000   0.0000   0.0000   0.0000   0.0000
     0.0000   0.0000   0.0000   0.0000

          k =-0.1875-0.1804 0.0000 (  5782 PWs)   bands (ev):

   -19.0972 -18.9593  -6.8905  -6.8509  -6.7223  -5.7742  -5.2645  -5.2348
     4.0515   4.4357   5.1923   6.1059   6.1911   7.2232   7.6569   8.5550
     8.9323   9.5083   9.6422  11.6343

     occupation numbers 
     1.0000   1.0000   1.0000   1.0000   1.0000   1.0000   1.0000   1.0000
     0.0000   0.0000   0.0000   0.0000   0.0000   0.0000   0.0000   0.0000
     0.0000   0.0000   0.0000   0.0000

          k =-0.1250-0.0722 0.0000 (  5792 PWs)   bands (ev):

   -19.7467 -19.5958  -7.6858  -6.6239  -4.9172  -4.8993  -4.2803  -4.2559
     2.9706   3.4261   4.0916   5.2126   5.4463   7.0026   7.7565   8.9226
     9.0090   9.3517   9.7243  10.4744

     occupation numbers 
     1.0000   1.0000   1.0000   1.0000   1.0000   1.0000   1.0000   1.0000
     0.0000   0.0000   0.0000   0.0000   0.0000   0.0000   0.0000   0.0000
     0.0000   0.0000   0.0000   0.0000

          k =-0.1250 0.0000 0.0000 (  5767 PWs)   bands (ev):

   -19.8209 -19.6686  -7.7865  -6.7190  -4.6196  -4.6062  -4.1807  -4.1593
     2.8470   3.3087   3.9680   5.0953   5.3404   6.9450   7.6729   9.0904
     9.1802   9.2560   9.7816  10.0610

     occupation numbers 
     1.0000   1.0000   1.0000   1.0000   1.0000   1.0000   1.0000   1.0000
     0.0000   0.0000   0.0000   0.0000   0.0000   0.0000   0.0000   0.0000
     0.0000   0.0000   0.0000   0.0000

          k =-0.1250 0.0722 0.0000 (  5792 PWs)   bands (ev):

   -19.7467 -19.5958  -7.6858  -6.6239  -4.9172  -4.8993  -4.2803  -4.2559
     2.9706   3.4261   4.0916   5.2126   5.4463   7.0026   7.7565   8.9226
     9.0090   9.3517   9.7243  10.4743

     occupation numbers 
     1.0000   1.0000   1.0000   1.0000   1.0000   1.0000   1.0000   1.0000
     0.0000   0.0000   0.0000   0.0000   0.0000   0.0000   0.0000   0.0000
     0.0000   0.0000   0.0000   0.0000

          k =-0.1250 0.1443 0.0000 (  5774 PWs)   bands (ev):

   -19.5261 -19.3795  -7.3849  -6.3436  -5.5990  -5.5864  -4.6882  -4.6634
     3.3394   3.7746   4.4621   5.5607   5.7492   7.1308   7.9836   8.9095
     9.0314   9.3270   9.3942  10.6490

     occupation numbers 
     1.0000   1.0000   1.0000   1.0000   1.0000   1.0000   1.0000   1.0000
     0.0000   0.0000   0.0000   0.0000   0.0000   0.0000   0.0000   0.0000
     0.0000   0.0000   0.0000   0.0000

          k =-0.1250 0.2165 0.0000 (  5782 PWs)   bands (ev):

   -19.1670 -19.0276  -6.9047  -6.5453  -6.5061  -5.8613  -5.3331  -5.3058
     3.9438   4.3344   5.0759   6.1033   6.1079   7.2232   7.7875   9.0098
     9.2084   9.4411   9.5736  10.8921

     occupation numbers 
     1.0000   1.0000   1.0000   1.0000   1.0000   1.0000   1.0000   1.0000
     0.0000   0.0000   0.0000   0.0000   0.0000   0.0000   0.0000   0.0000
     0.0000   0.0000   0.0000   0.0000

          k =-0.1250 0.2887 0.0000 (  5817 PWs)   bands (ev):

   -18.6857 -18.5569  -7.6519  -7.6344  -6.2168  -6.0032  -5.9769  -5.2421
     4.7654   4.9851   5.8400   6.0200   6.4328   7.3914   7.5854   9.2765
     9.5166   9.9602  10.0103  11.6185

     occupation numbers 
     1.0000   1.0000   1.0000   1.0000   1.0000   1.0000   1.0000   1.0000
     0.0000   0.0000   0.0000   0.0000   0.0000   0.0000   0.0000   0.0000
     0.0000   0.0000   0.0000   0.0000

          k =-0.1250 0.3608 0.0000 (  5821 PWs)   bands (ev):

   -18.1131 -17.9991  -8.8362  -8.8043  -6.5792  -6.5449  -5.3972  -4.5009
     4.7538   5.0668   5.8138   6.6214   7.0297   8.1898   8.3608   9.2802
     9.8523  10.6109  10.9459  12.6364

     occupation numbers 
     1.0000   1.0000   1.0000   1.0000   1.0000   1.0000   1.0000   1.0000
     0.0000   0.0000   0.0000   0.0000   0.0000   0.0000   0.0000   0.0000
     0.0000   0.0000   0.0000   0.0000

          k =-0.1250 0.4330 0.0000 (  5821 PWs)   bands (ev):

   -17.5113 -17.4190  -9.9333  -9.8929  -7.0013  -6.9642  -4.5066  -3.7214
     3.6145   4.0618   6.9654   7.6958   8.3079   8.9469   9.1563   9.7220
    10.3340  11.3177  12.0697  13.3561

     occupation numbers 
     1.0000   1.0000   1.0000   1.0000   1.0000   1.0000   1.0000   1.0000
     0.0000   0.0000   0.0000   0.0000   0.0000   0.0000   0.0000   0.0000
     0.0000   0.0000   0.0000   0.0000

          k =-0.1250-0.6495 0.0000 (  5830 PWs)   bands (ev):

   -17.0028 -16.9417 -10.7514 -10.7103  -7.2595  -7.2205  -3.6949  -3.0787
     2.6118   3.1673   8.0019   8.5950   9.4868   9.5041  10.1614  10.8706
    11.0983  12.1205  12.3646  12.8336

     occupation numbers 
     1.0000   1.0000   1.0000   1.0000   1.0000   1.0000   1.0000   1.0000
     0.0000   0.0000   0.0000   0.0000   0.0000   0.0000   0.0000   0.0000
     0.0000   0.0000   0.0000   0.0000

          k =-0.1250-0.5774 0.0000 (  5836 PWs)   bands (ev):

   -16.7871 -16.7514 -11.0649 -11.0265  -7.3465  -7.3068  -3.3174  -2.8301
     2.1997   2.7866   8.3760   8.7022  10.4501  10.7006  10.7870  11.0940
    11.6495  11.9162  11.9516  12.6090

     occupation numbers 
     1.0000   1.0000   1.0000   1.0000   1.0000   1.0000   1.0000   1.0000
     0.0000   0.0000   0.0000   0.0000   0.0000   0.0000   0.0000   0.0000
     0.0000   0.0000   0.0000   0.0000

          k =-0.1250-0.5052 0.0000 (  5830 PWs)   bands (ev):

   -17.0028 -16.9417 -10.7514 -10.7103  -7.2595  -7.2205  -3.6949  -3.0787
     2.6118   3.1673   8.0019   8.5950   9.4868   9.5041  10.1614  10.8706
    11.0983  12.1205  12.3646  12.8335

     occupation numbers 
     1.0000   1.0000   1.0000   1.0000   1.0000   1.0000   1.0000   1.0000
     0.0000   0.0000   0.0000   0.0000   0.0000   0.0000   0.0000   0.0000
     0.0000   0.0000   0.0000   0.0000

          k =-0.1250-0.4330 0.0000 (  5821 PWs)   bands (ev):

   -17.5113 -17.4190  -9.9333  -9.8929  -7.0013  -6.9642  -4.5066  -3.7214
     3.6145   4.0618   6.9654   7.6958   8.3079   8.9469   9.1563   9.7220
    10.3340  11.3177  12.0697  13.3561

     occupation numbers 
     1.0000   1.0000   1.0000   1.0000   1.0000   1.0000   1.0000   1.0000
     0.0000   0.0000   0.0000   0.0000   0.0000   0.0000   0.0000   0.0000
     0.0000   0.0000   0.0000   0.0000

          k =-0.1250-0.3608 0.0000 (  5821 PWs)   bands (ev):

   -18.1131 -17.9991  -8.8362  -8.8043  -6.5792  -6.5449  -5.3973  -4.5009
     4.7538   5.0668   5.8138   6.6214   7.0297   8.1897   8.3608   9.2801
     9.8523  10.6109  10.9458  12.6363

     occupation numbers 
     1.0000   1.0000   1.0000   1.0000   1.0000   1.0000   1.0000   1.0000
     0.0000   0.0000   0.0000   0.0000   0.0000   0.0000   0.0000   0.0000
     0.0000   0.0000   0.0000   0.0000

          k =-0.1250-0.2887 0.0000 (  5817 PWs)   bands (ev):

   -18.6857 -18.5569  -7.6518  -7.6344  -6.2168  -6.0032  -5.9769  -5.2421
     4.7654   4.9851   5.8400   6.0200   6.4328   7.3914   7.5854   9.2765
     9.5166   9.9602  10.0102  11.6183

     occupation numbers 
     1.0000   1.0000   1.0000   1.0000   1.0000   1.0000   1.0000   1.0000
     0.0000   0.0000   0.0000   0.0000   0.0000   0.0000   0.0000   0.0000
     0.0000   0.0000   0.0000   0.0000

          k =-0.1250-0.2165 0.0000 (  5782 PWs)   bands (ev):

   -19.1670 -19.0276  -6.9047  -6.5453  -6.5061  -5.8613  -5.3331  -5.3058
     3.9438   4.3344   5.0759   6.1033   6.1079   7.2232   7.7875   9.0098
     9.2084   9.4411   9.5736  10.8921

     occupation numbers 
     1.0000   1.0000   1.0000   1.0000   1.0000   1.0000   1.0000   1.0000
     0.0000   0.0000   0.0000   0.0000   0.0000   0.0000   0.0000   0.0000
     0.0000   0.0000   0.0000   0.0000

          k =-0.1250-0.1443 0.0000 (  5774 PWs)   bands (ev):

   -19.5261 -19.3795  -7.3849  -6.3436  -5.5990  -5.5864  -4.6883  -4.6635
     3.3394   3.7746   4.4621   5.5607   5.7492   7.1308   7.9836   8.9095
     9.0314   9.3270   9.3942  10.6492

     occupation numbers 
     1.0000   1.0000   1.0000   1.0000   1.0000   1.0000   1.0000   1.0000
     0.0000   0.0000   0.0000   0.0000   0.0000   0.0000   0.0000   0.0000
     0.0000   0.0000   0.0000   0.0000

          k =-0.0625-0.0361 0.0000 (  5791 PWs)   bands (ev):

   -19.9708 -19.8156  -7.9901  -6.9117  -4.0568  -4.0390  -3.8871  -3.8667
     2.5922   3.0706   3.7183   4.8560   5.1108   6.8049   7.4580   9.1185
     9.1773   9.2719   9.5307   9.5976

     occupation numbers 
     1.0000   1.0000   1.0000   1.0000   1.0000   1.0000   1.0000   1.0000
     0.0000   0.0000   0.0000   0.0000   0.0000   0.0000   0.0000   0.0000
     0.0000   0.0000   0.0000   0.0000

          k =-0.0625 0.0361 0.0000 (  5791 PWs)   bands (ev):

   -19.9708 -19.8156  -7.9901  -6.9117  -4.0568  -4.0391  -3.8871  -3.8666
     2.5922   3.0706   3.7183   4.8560   5.1108   6.8049   7.4580   9.1186
     9.1774   9.2719   9.5307   9.5975

     occupation numbers 
     1.0000   1.0000   1.0000   1.0000   1.0000   1.0000   1.0000   1.0000
     0.0000   0.0000   0.0000   0.0000   0.0000   0.0000   0.0000   0.0000
     0.0000   0.0000   0.0000   0.0000

          k =-0.0625 0.1083 0.0000 (  5767 PWs)   bands (ev):

   -19.8209 -19.6686  -7.7865  -6.7190  -4.6196  -4.6062  -4.1807  -4.1593
     2.8470   3.3087   3.9680   5.0953   5.3404   6.9450   7.6729   9.0904
     9.1802   9.2560   9.7816  10.0610

     occupation numbers 
     1.0000   1.0000   1.0000   1.0000   1.0000   1.0000   1.0000   1.0000
     0.0000   0.0000   0.0000   0.0000   0.0000   0.0000   0.0000   0.0000
     0.0000   0.0000   0.0000   0.0000

          k =-0.0625 0.1804 0.0000 (  5774 PWs)   bands (ev):

   -19.5261 -19.3795  -7.3849  -6.3436  -5.5990  -5.5864  -4.6882  -4.6635
     3.3394   3.7746   4.4621   5.5607   5.7492   7.1308   7.9836   8.9095
     9.0314   9.3270   9.3943  10.6491

     occupation numbers 
     1.0000   1.0000   1.0000   1.0000   1.0000   1.0000   1.0000   1.0000
     0.0000   0.0000   0.0000   0.0000   0.0000   0.0000   0.0000   0.0000
     0.0000   0.0000   0.0000   0.0000

          k =-0.0625 0.2526 0.0000 (  5782 PWs)   bands (ev):

   -19.0972 -18.9593  -6.8905  -6.8509  -6.7223  -5.7742  -5.2645  -5.2348
     4.0515   4.4357   5.1923   6.1059   6.1911   7.2232   7.6569   8.5550
     8.9323   9.5083   9.6422  11.6339

     occupation numbers 
     1.0000   1.0000   1.0000   1.0000   1.0000   1.0000   1.0000   1.0000
     0.0000   0.0000   0.0000   0.0000   0.0000   0.0000   0.0000   0.0000
     0.0000   0.0000   0.0000   0.0000

          k =-0.0625 0.3248 0.0000 (  5827 PWs)   bands (ev):

   -18.5564 -18.4309  -8.1757  -8.1409  -6.0314  -5.8075  -5.7743  -5.0761
     4.9553   5.0411   5.6467   6.1860   6.3433   7.4546   7.6395   8.4898
     9.0742  10.1361  10.2759  12.7090

     occupation numbers 
     1.0000   1.0000   1.0000   1.0000   1.0000   1.0000   1.0000   1.0000
     0.0000   0.0000   0.0000   0.0000   0.0000   0.0000   0.0000   0.0000
     0.0000   0.0000   0.0000   0.0000

          k =-0.0625 0.3969 0.0000 (  5841 PWs)   bands (ev):

   -17.9465 -17.8388  -9.4401  -9.3972  -6.2548  -6.2204  -5.1533  -4.2863
     4.2666   4.6962   6.0377   6.8503   7.3420   8.0713   8.2873   8.8449
     9.5665  10.9076  11.3534  13.4521

     occupation numbers 
     1.0000   1.0000   1.0000   1.0000   1.0000   1.0000   1.0000   1.0000
     0.0000   0.0000   0.0000   0.0000   0.0000   0.0000   0.0000   0.0000
     0.0000   0.0000   0.0000   0.0000

          k =-0.0625 0.4691 0.0000 (  5854 PWs)   bands (ev):

   -17.3559 -17.2746 -10.4881 -10.4440  -6.5687  -6.5331  -4.2594  -3.5265
     3.0583   3.6437   7.0364   7.6949   8.5142   8.5500   9.1390  10.0983
    10.5030  11.8018  12.4466  13.1806

     occupation numbers 
     1.0000   1.0000   1.0000   1.0000   1.0000   1.0000   1.0000   1.0000
     0.0000   0.0000   0.0000   0.0000   0.0000   0.0000   0.0000   0.0000
     0.0000   0.0000   0.0000   0.0000

          k =-0.0625-0.6134 0.0000 (  5844 PWs)   bands (ev):

   -16.9527 -16.9060 -11.1135 -11.0762  -6.7300  -6.6938  -3.5954  -3.0333
     2.2495   2.9148   7.5272   7.8181   9.7191   9.9166  10.6458  11.1974
    11.3608  11.6651  12.2107  12.6028

     occupation numbers 
     1.0000   1.0000   1.0000   1.0000   1.0000   1.0000   1.0000   1.0000
     0.0000   0.0000   0.0000   0.0000   0.0000   0.0000   0.0000   0.0000
     0.0000   0.0000   0.0000   0.0000

          k =-0.0625-0.5413 0.0000 (  5844 PWs)   bands (ev):

   -16.9527 -16.9060 -11.1135 -11.0762  -6.7300  -6.6938  -3.5954  -3.0333
     2.2495   2.9148   7.5272   7.8181   9.7191   9.9166  10.6458  11.1974
    11.3608  11.6651  12.2107  12.6028

     occupation numbers 
     1.0000   1.0000   1.0000   1.0000   1.0000   1.0000   1.0000   1.0000
     0.0000   0.0000   0.0000   0.0000   0.0000   0.0000   0.0000   0.0000
     0.0000   0.0000   0.0000   0.0000

          k =-0.0625-0.4691 0.0000 (  5854 PWs)   bands (ev):

   -17.3559 -17.2746 -10.4881 -10.4440  -6.5687  -6.5331  -4.2594  -3.5265
     3.0583   3.6437   7.0364   7.6949   8.5142   8.5500   9.1390  10.0983
    10.5030  11.8018  12.4466  13.1804

     occupation numbers 
     1.0000   1.0000   1.0000   1.0000   1.0000   1.0000   1.0000   1.0000
     0.0000   0.0000   0.0000   0.0000   0.0000   0.0000   0.0000   0.0000
     0.0000   0.0000   0.0000   0.0000

          k =-0.0625-0.3969 0.0000 (  5841 PWs)   bands (ev):

   -17.9465 -17.8388  -9.4401  -9.3972  -6.2548  -6.2204  -5.1533  -4.2863
     4.2666   4.6962   6.0377   6.8503   7.3420   8.0713   8.2873   8.8449
     9.5665  10.9076  11.3534  13.4514

     occupation numbers 
     1.0000   1.0000   1.0000   1.0000   1.0000   1.0000   1.0000   1.0000
     0.0000   0.0000   0.0000   0.0000   0.0000   0.0000   0.0000   0.0000
     0.0000   0.0000   0.0000   0.0000

          k =-0.0625-0.3248 0.0000 (  5827 PWs)   bands (ev):

   -18.5564 -18.4309  -8.1757  -8.1409  -6.0314  -5.8075  -5.7743  -5.0761
     4.9553   5.0411   5.6467   6.1860   6.3433   7.4546   7.6395   8.4898
     9.0742  10.1361  10.2759  12.7091

     occupation numbers 
     1.0000   1.0000   1.0000   1.0000   1.0000   1.0000   1.0000   1.0000
     0.0000   0.0000   0.0000   0.0000   0.0000   0.0000   0.0000   0.0000
     0.0000   0.0000   0.0000   0.0000

          k =-0.0625-0.2526 0.0000 (  5782 PWs)   bands (ev):

   -19.0972 -18.9593  -6.8905  -6.8509  -6.7223  -5.7742  -5.2645  -5.2348
     4.0515   4.4357   5.1923   6.1059   6.1911   7.2232   7.6569   8.5550
     8.9323   9.5083   9.6422  11.6341

     occupation numbers 
     1.0000   1.0000   1.0000   1.0000   1.0000   1.0000   1.0000   1.0000
     0.0000   0.0000   0.0000   0.0000   0.0000   0.0000   0.0000   0.0000
     0.0000   0.0000   0.0000   0.0000

          k =-0.0625-0.1804 0.0000 (  5774 PWs)   bands (ev):

   -19.5261 -19.3795  -7.3849  -6.3436  -5.5990  -5.5864  -4.6883  -4.6635
     3.3394   3.7746   4.4621   5.5607   5.7492   7.1308   7.9836   8.9095
     9.0315   9.3270   9.3943  10.6492

     occupation numbers 
     1.0000   1.0000   1.0000   1.0000   1.0000   1.0000   1.0000   1.0000
     0.0000   0.0000   0.0000   0.0000   0.0000   0.0000   0.0000   0.0000
     0.0000   0.0000   0.0000   0.0000

          k =-0.0625-0.1083 0.0000 (  5767 PWs)   bands (ev):

   -19.8209 -19.6686  -7.7865  -6.7190  -4.6196  -4.6062  -4.1807  -4.1594
     2.8470   3.3087   3.9680   5.0953   5.3404   6.9450   7.6729   9.0904
     9.1801   9.2559   9.7816  10.0608

     occupation numbers 
     1.0000   1.0000   1.0000   1.0000   1.0000   1.0000   1.0000   1.0000
     0.0000   0.0000   0.0000   0.0000   0.0000   0.0000   0.0000   0.0000
     0.0000   0.0000   0.0000   0.0000

     highest occupied, lowest unoccupied level (ev):    -2.3726    2.1084

     Writing all to output data dir ./tmp/BN2L_AA1_PBE_vdW.save/

     init_run     :      0.36s CPU      0.37s WALL (       1 calls)
     electrons    :     56.11s CPU     56.33s WALL (       1 calls)

     Called by init_run:
     wfcinit      :      0.00s CPU      0.00s WALL (       1 calls)
     wfcinit:atom :      0.05s CPU      0.05s WALL (     256 calls)
     wfcinit:wfcr :      2.44s CPU      2.46s WALL (     256 calls)
     potinit      :      0.01s CPU      0.01s WALL (       1 calls)
     hinit0       :      0.33s CPU      0.34s WALL (       1 calls)

     Called by electrons:
     c_bands      :     56.11s CPU     56.32s WALL (       1 calls)
     v_of_rho     :      0.01s CPU      0.01s WALL (       1 calls)
     v_h          :      0.00s CPU      0.00s WALL (       1 calls)
     v_xc         :      0.01s CPU      0.01s WALL (       1 calls)

     Called by c_bands:
     init_us_2    :      0.06s CPU      0.06s WALL (     256 calls)
     init_us_2:cp :      0.06s CPU      0.06s WALL (     256 calls)
     cegterg      :     53.38s CPU     53.52s WALL (     450 calls)

     Called by sum_band:

     Called by *egterg:
     cdiaghg      :      5.69s CPU      5.78s WALL (    6822 calls)
     cegterg:over :      4.69s CPU      4.76s WALL (    6566 calls)
     cegterg:upda :      5.43s CPU      6.26s WALL (    6566 calls)
     cegterg:last :      7.05s CPU      5.93s WALL (    3572 calls)
     cdiaghg:chol :      0.45s CPU      0.46s WALL (    6822 calls)
     cdiaghg:inve :      0.12s CPU      0.13s WALL (    6822 calls)
     cdiaghg:para :      0.78s CPU      0.82s WALL (   13644 calls)
     h_psi        :     31.49s CPU     31.65s WALL (    7272 calls)
     g_psi        :      0.27s CPU      0.30s WALL (    6566 calls)

     Called by h_psi:
     h_psi:calbec :      2.23s CPU      2.26s WALL (    7272 calls)
     vloc_psi     :     26.36s CPU     27.12s WALL (    7272 calls)
     add_vuspsi   :      2.62s CPU      1.96s WALL (    7272 calls)

     General routines
     calbec       :      2.22s CPU      2.24s WALL (    7272 calls)
     fft          :      0.27s CPU      0.27s WALL (      11 calls)
     fftw         :     23.75s CPU     24.33s WALL (  145564 calls)
     davcio       :      0.00s CPU      0.06s WALL (     512 calls)

     Parallel routines

     PWSCF        :     57.33s CPU     57.86s WALL


   This run was terminated on:   6:59:22  14Apr2025            

=------------------------------------------------------------------------------=
   JOB DONE.
=------------------------------------------------------------------------------=
