
     Program PWSCF v.7.2 starts on  8Apr2024 at 10:46:50 

     This program is part of the open-source Quantum ESPRESSO suite
     for quantum simulation of materials; please cite
         "P. Giannozzi et al., J. Phys.:Condens. Matter 21 395502 (2009);
         "P. Giannozzi et al., J. Phys.:Condens. Matter 29 465901 (2017);
         "P. Giannozzi et al., J. Chem. Phys. 152 154105 (2020);
          URL http://www.quantum-espresso.org", 
     in publications or presentations arising from this work. More details at
     http://www.quantum-espresso.org/quote

     Parallel version (MPI & OpenMP), running on       1 processor cores
     Number of MPI processes:                 1
     Threads/MPI process:                     1

     MPI processes distributed on     1 nodes
     0 MiB available memory on the printing compute node when the environment starts

     Waiting for input...
     Reading input from standard input

     Current dimensions of program PWSCF are:
     Max number of different atomic species (ntypx) = 10
     Max number of k-points (npk) =  40000
     Max angular momentum in pseudopotentials (lmaxx) =  4

     IMPORTANT: XC functional enforced from input :
     Exchange-correlation= VDW-DF2-B86R
                           (   1   4  26   0   2   0   0)
     Any further DFT definition will be discarded
     Please, verify this is what you really want


     Subspace diagonalization in iterative solution of the eigenvalue problem:
     a serial algorithm will be used


     G-vector sticks info
     --------------------
     sticks:   dense  smooth     PW     G-vecs:    dense   smooth      PW
     Sum         721     721    211                93627    93627   14835

     Using Slab Decomposition



     bravais-lattice index     =            4
     lattice parameter (alat)  =       4.6645  a.u.
     unit-cell volume          =     527.3377 (a.u.)^3
     number of atoms/cell      =            4
     number of atomic types    =            1
     number of electrons       =        16.00
     number of Kohn-Sham states=           12
     kinetic-energy cutoff     =     120.0000  Ry
     charge density cutoff     =     480.0000  Ry
     scf convergence threshold =      1.0E-06
     mixing beta               =       0.7000
     number of iterations used =            8  plain     mixing
     energy convergence thresh.=      1.0E-04
     force convergence thresh. =      1.0E-03
     press convergence thresh. =      5.0E-01
     Exchange-correlation= VDW-DF2-B86R
                           (   1   4  26   0   2   0   0)
     nstep                     =           50


     celldm(1)=   4.664470  celldm(2)=   0.000000  celldm(3)=   6.000000
     celldm(4)=   0.000000  celldm(5)=   0.000000  celldm(6)=   0.000000

     crystal axes: (cart. coord. in units of alat)
               a(1) = (   1.000000   0.000000   0.000000 )  
               a(2) = (  -0.500000   0.866025   0.000000 )  
               a(3) = (   0.000000   0.000000   6.000000 )  

     reciprocal axes: (cart. coord. in units 2 pi/alat)
               b(1) = (  1.000000  0.577350 -0.000000 )  
               b(2) = (  0.000000  1.154701  0.000000 )  
               b(3) = (  0.000000 -0.000000  0.166667 )  


     PseudoPot. # 1 for C  read from file:
     ../../../../Pseudo/PBE/C.upf
     MD5 check sum: 34a24e64c0a39f27c6c36b90a16ac686
     Pseudo is Norm-conserving + core correction, Zval =  4.0
     Generated using ONCVPSP code by D. R. Hamann
     Using radial grid of 1248 points,  4 beta functions with: 
                l(1) =   0
                l(2) =   0
                l(3) =   1
                l(4) =   1

     atomic species   valence    mass     pseudopotential
        C              4.00    12.01100     C ( 1.00)

     12 Sym. Ops. (no inversion) found ( 6 have fractional translation)


                                    s                        frac. trans.

      isym =  1     identity                                     

 cryst.   s( 1) = (     1          0          0      )
                  (     0          1          0      )
                  (     0          0          1      )

 cart.    s( 1) = (  1.0000000  0.0000000  0.0000000 )
                  (  0.0000000  1.0000000  0.0000000 )
                  (  0.0000000  0.0000000  1.0000000 )


      isym =  2     180 deg rotation - cart. axis [0,0,1]        

 cryst.   s( 2) = (    -1          0          0      )    f =(  0.3333330 )
                  (     0         -1          0      )       ( -0.3333330 )
                  (     0          0          1      )       (  0.0000000 )

 cart.    s( 2) = ( -1.0000000  0.0000000  0.0000000 )    f =(  0.4999995 )
                  (  0.0000000 -1.0000000  0.0000000 )       ( -0.2886748 )
                  (  0.0000000  0.0000000  1.0000000 )       (  0.0000000 )


      isym =  3      60 deg rotation - cryst. axis [0,0,1]       

 cryst.   s( 3) = (     1          1          0      )    f =(  0.3333340 )
                  (    -1          0          0      )       ( -0.3333330 )
                  (     0          0          1      )       (  0.0000000 )

 cart.    s( 3) = (  0.5000000 -0.8660254  0.0000000 )    f =(  0.5000005 )
                  (  0.8660254  0.5000000  0.0000000 )       ( -0.2886748 )
                  (  0.0000000  0.0000000  1.0000000 )       (  0.0000000 )


      isym =  4      60 deg rotation - cryst. axis [0,0,-1]      

 cryst.   s( 4) = (     0         -1          0      )    f =(  0.3333330 )
                  (     1          1          0      )       ( -0.3333340 )
                  (     0          0          1      )       (  0.0000000 )

 cart.    s( 4) = (  0.5000000  0.8660254  0.0000000 )    f =(  0.5000000 )
                  ( -0.8660254  0.5000000  0.0000000 )       ( -0.2886757 )
                  (  0.0000000  0.0000000  1.0000000 )       (  0.0000000 )


      isym =  5     120 deg rotation - cryst. axis [0,0,1]       

 cryst.   s( 5) = (     0          1          0      )
                  (    -1         -1          0      )
                  (     0          0          1      )

 cart.    s( 5) = ( -0.5000000 -0.8660254  0.0000000 )
                  (  0.8660254 -0.5000000  0.0000000 )
                  (  0.0000000  0.0000000  1.0000000 )


      isym =  6     120 deg rotation - cryst. axis [0,0,-1]      

 cryst.   s( 6) = (    -1         -1          0      )
                  (     1          0          0      )
                  (     0          0          1      )

 cart.    s( 6) = ( -0.5000000  0.8660254  0.0000000 )
                  ( -0.8660254 -0.5000000  0.0000000 )
                  (  0.0000000  0.0000000  1.0000000 )


      isym =  7     inv. 180 deg rotation - cart. axis [0,1,0]   

 cryst.   s( 7) = (     1          0          0      )    f =(  0.3333340 )
                  (    -1         -1          0      )       ( -0.3333330 )
                  (     0          0          1      )       (  0.0000000 )

 cart.    s( 7) = (  1.0000000  0.0000000  0.0000000 )    f =(  0.5000005 )
                  (  0.0000000 -1.0000000  0.0000000 )       ( -0.2886748 )
                  (  0.0000000  0.0000000  1.0000000 )       (  0.0000000 )


      isym =  8     inv. 180 deg rotation - cart. axis [1,0,0]   

 cryst.   s( 8) = (    -1          0          0      )
                  (     1          1          0      )
                  (     0          0          1      )

 cart.    s( 8) = ( -1.0000000  0.0000000  0.0000000 )
                  (  0.0000000  1.0000000  0.0000000 )
                  (  0.0000000  0.0000000  1.0000000 )


      isym =  9     inv. 180 deg rotation - cryst. axis [1,-1,0] 

 cryst.   s( 9) = (     0          1          0      )    f =(  0.3333330 )
                  (     1          0          0      )       ( -0.3333330 )
                  (     0          0          1      )       (  0.0000000 )

 cart.    s( 9) = ( -0.5000000  0.8660254  0.0000000 )    f =(  0.4999995 )
                  (  0.8660254  0.5000000  0.0000000 )       ( -0.2886748 )
                  (  0.0000000  0.0000000  1.0000000 )       (  0.0000000 )


      isym = 10     inv. 180 deg rotation - cryst. axis [2,1,0]  

 cryst.   s(10) = (    -1         -1          0      )    f =(  0.3333330 )
                  (     0          1          0      )       ( -0.3333340 )
                  (     0          0          1      )       (  0.0000000 )

 cart.    s(10) = ( -0.5000000 -0.8660254  0.0000000 )    f =(  0.5000000 )
                  ( -0.8660254  0.5000000  0.0000000 )       ( -0.2886757 )
                  (  0.0000000  0.0000000  1.0000000 )       (  0.0000000 )


      isym = 11     inv. 180 deg rotation - cryst. axis [0,1,0]  

 cryst.   s(11) = (     1          1          0      )
                  (     0         -1          0      )
                  (     0          0          1      )

 cart.    s(11) = (  0.5000000  0.8660254  0.0000000 )
                  (  0.8660254 -0.5000000  0.0000000 )
                  (  0.0000000  0.0000000  1.0000000 )


      isym = 12     inv. 180 deg rotation - cryst. axis [1,1,0]  

 cryst.   s(12) = (     0         -1          0      )
                  (    -1          0          0      )
                  (     0          0          1      )

 cart.    s(12) = (  0.5000000 -0.8660254  0.0000000 )
                  ( -0.8660254 -0.5000000  0.0000000 )
                  (  0.0000000  0.0000000  1.0000000 )


     point group C_6v (6mm) 
     there are  6 classes
     the character table:

       E     2C6   2C3   C2    3s_v  3s_d 
A_1    1.00  1.00  1.00  1.00  1.00  1.00
A_2    1.00  1.00  1.00  1.00 -1.00 -1.00
B_1    1.00 -1.00  1.00 -1.00  1.00 -1.00
B_2    1.00 -1.00  1.00 -1.00 -1.00  1.00
E_1    2.00  1.00 -1.00 -2.00  0.00  0.00
E_2    2.00 -1.00 -1.00  2.00  0.00  0.00

     the symmetry operations in each class and the name of the first element:

     E        1
          identity                                               
     2C6      3    4
           60 deg rotation - cryst. axis [0,0,1]                 
     2C3      5    6
          120 deg rotation - cryst. axis [0,0,1]                 
     C2       2
          180 deg rotation - cart. axis [0,0,1]                  
     3s_v     8   12   11
          inv. 180 deg rotation - cart. axis [1,0,0]             
     3s_d     7    9   10
          inv. 180 deg rotation - cart. axis [0,1,0]             

   Cartesian axes

     site n.     atom                  positions (alat units)
         1           C   tau(   1) = (   0.0000000   0.0000000   0.0000000  )
         2           C   tau(   2) = (   0.5000005   0.2886748   0.0000000  )
         3           C   tau(   3) = (   0.0000000   0.0000000   1.4089199  )
         4           C   tau(   4) = (   0.5000005   0.2886748   1.4089199  )

   Crystallographic axes

     site n.     atom                  positions (cryst. coord.)
         1           C   tau(   1) = (  0.0000000  0.0000000  0.0000000  )
         2           C   tau(   2) = (  0.6666670  0.3333330  0.0000000  )
         3           C   tau(   3) = (  0.0000000  0.0000000  0.2348200  )
         4           C   tau(   4) = (  0.6666670  0.3333330  0.2348200  )

     number of k points=    19  Marzari-Vanderbilt smearing, width (Ry)=  0.0050
                       cart. coord. in units 2pi/alat
        k(    1) = (   0.0000000   0.0000000   0.0000000), wk =   0.0138889
        k(    2) = (   0.0000000   0.0962250   0.0000000), wk =   0.0833333
        k(    3) = (   0.0000000   0.1924501   0.0000000), wk =   0.0833333
        k(    4) = (   0.0000000   0.2886751   0.0000000), wk =   0.0833333
        k(    5) = (   0.0000000   0.3849002   0.0000000), wk =   0.0833333
        k(    6) = (   0.0000000   0.4811252   0.0000000), wk =   0.0833333
        k(    7) = (   0.0000000  -0.5773503   0.0000000), wk =   0.0416667
        k(    8) = (   0.0833333   0.1443376   0.0000000), wk =   0.0833333
        k(    9) = (   0.0833333   0.2405626   0.0000000), wk =   0.1666667
        k(   10) = (   0.0833333   0.3367877   0.0000000), wk =   0.1666667
        k(   11) = (   0.0833333   0.4330127   0.0000000), wk =   0.1666667
        k(   12) = (   0.0833333   0.5292377   0.0000000), wk =   0.1666667
        k(   13) = (   0.1666667   0.2886751   0.0000000), wk =   0.0833333
        k(   14) = (   0.1666667   0.3849002   0.0000000), wk =   0.1666667
        k(   15) = (   0.1666667   0.4811252   0.0000000), wk =   0.1666667
        k(   16) = (   0.1666667   0.5773503   0.0000000), wk =   0.0833333
        k(   17) = (   0.2500000   0.4330127   0.0000000), wk =   0.0833333
        k(   18) = (   0.2500000   0.5292377   0.0000000), wk =   0.1666667
        k(   19) = (   0.3333333   0.5773503   0.0000000), wk =   0.0277778

                       cryst. coord.
        k(    1) = (   0.0000000   0.0000000   0.0000000), wk =   0.0138889
        k(    2) = (   0.0000000   0.0833333   0.0000000), wk =   0.0833333
        k(    3) = (   0.0000000   0.1666667   0.0000000), wk =   0.0833333
        k(    4) = (   0.0000000   0.2500000   0.0000000), wk =   0.0833333
        k(    5) = (   0.0000000   0.3333333   0.0000000), wk =   0.0833333
        k(    6) = (   0.0000000   0.4166667   0.0000000), wk =   0.0833333
        k(    7) = (   0.0000000  -0.5000000   0.0000000), wk =   0.0416667
        k(    8) = (   0.0833333   0.0833333   0.0000000), wk =   0.0833333
        k(    9) = (   0.0833333   0.1666667   0.0000000), wk =   0.1666667
        k(   10) = (   0.0833333   0.2500000   0.0000000), wk =   0.1666667
        k(   11) = (   0.0833333   0.3333333   0.0000000), wk =   0.1666667
        k(   12) = (   0.0833333   0.4166667   0.0000000), wk =   0.1666667
        k(   13) = (   0.1666667   0.1666667   0.0000000), wk =   0.0833333
        k(   14) = (   0.1666667   0.2500000   0.0000000), wk =   0.1666667
        k(   15) = (   0.1666667   0.3333333   0.0000000), wk =   0.1666667
        k(   16) = (   0.1666667   0.4166667   0.0000000), wk =   0.0833333
        k(   17) = (   0.2500000   0.2500000   0.0000000), wk =   0.0833333
        k(   18) = (   0.2500000   0.3333333   0.0000000), wk =   0.1666667
        k(   19) = (   0.3333333   0.3333333   0.0000000), wk =   0.0277778

     Dense  grid:    93627 G-vectors     FFT dimensions: (  36,  36, 200)

     Dynamical RAM for                 wfc:       2.14 MB

     Dynamical RAM for     wfc (w. buffer):      42.87 MB

     Dynamical RAM for           str. fact:       1.43 MB

     Dynamical RAM for           local pot:       0.00 MB

     Dynamical RAM for          nlocal pot:       5.72 MB

     Dynamical RAM for                qrad:       1.00 MB

     Dynamical RAM for          rho,v,vnew:      10.22 MB

     Dynamical RAM for               rhoin:       3.41 MB

     Dynamical RAM for            rho*nmix:      22.86 MB

     Dynamical RAM for           G-vectors:       6.07 MB

     Dynamical RAM for          h,s,v(r/c):       0.03 MB

     Dynamical RAM for          <psi|beta>:       0.01 MB

     Dynamical RAM for                 psi:       4.29 MB

     Dynamical RAM for                hpsi:       4.29 MB

     Dynamical RAM for      wfcinit/wfcrot:       5.72 MB

     Estimated static dynamical RAM per process >      83.46 MB

     Estimated max dynamical RAM per process >     114.92 MB

     Initial potential from superposition of free atoms

     starting charge      15.9998, renormalised to      16.0000

     negative rho (up, down):  5.247E-07 0.000E+00


     %%%%%%%%%%%%%%%%%%%%%%%%%%%%%%%%%%%%%%%%%%%%%%%%%%%%%%%%%%%%%%%%%%%%%%%%
     %                                                                      %
     % You are using vdW-DF, which was implemented by the Thonhauser group. %
     % Please cite the following two papers that made this development      %
     % possible and the two reviews that describe the various versions:     %
     %                                                                      %
     %   T. Thonhauser et al., PRL 115, 136402 (2015).                      %
     %   T. Thonhauser et al., PRB 76, 125112 (2007).                       %
     %   K. Berland et al., Rep. Prog. Phys. 78, 066501 (2015).             %
     %   D.C. Langreth et al., J. Phys.: Condens. Matter 21, 084203 (2009). %
     %                                                                      %
     % If you are calculating stress with vdW-DF, please also cite:         %
     %                                                                      %
     %   R. Sabatini et al., J. Phys.: Condens. Matter 24, 424209 (2012).   %
     %                                                                      %
     %%%%%%%%%%%%%%%%%%%%%%%%%%%%%%%%%%%%%%%%%%%%%%%%%%%%%%%%%%%%%%%%%%%%%%%%

     %%%%%%%%%%%%%%%%%%%%%%%%%%%%%%%%%%%%%%%%%%%%%%%%%%%%%%%%%%%%%%%%%%%%%%%%
     %                                                                      %
     %  vdW-DF NEWS:                                                        %
     %                                                                      %
     %  * vdW-DF3 is now available. DOI: 10.1021/acs.jctc.0c00471           %
     %    use with input_dft = 'vdW-DF3-opt1' or 'vdW-DF3-opt2'             %
     %                                                                      %
     %  * Unscreened and range-separated hybrid vdW-DF-cx functionals       %
     %    DOI: 10.1063/1.4986522 and 10.1088/1361-648X/ac2ad2               %
     %    use with input_dft = 'vdW-DF-cx0'    and 'vdW-DF-ahcx'            %
     %  * Unscreened and range-separated hybrid vdW-DF2-b86r functionals    %
     %    DOI: 10.1063/1.4986522 and DOI: 10.1103/PhysRevX.12.041003        %
     %    use with input_dft = 'vdW-DF2-br0' and 'vdW-DF2-ahbr'             %
     %                                                                      %
     %%%%%%%%%%%%%%%%%%%%%%%%%%%%%%%%%%%%%%%%%%%%%%%%%%%%%%%%%%%%%%%%%%%%%%%%


     Carrying out vdW-DF run using the following parameters:
     Nqs    =  20  Npoints =  1024  r_max =  100.000
     q_mesh =  0.00001000  0.04494208  0.09755937  0.15916263
               0.23128650  0.31572767  0.41458969  0.53033537
               0.66584808  0.82450364  1.01025438  1.22772762
               1.48234092  1.78043706  2.12944203  2.53805004
               3.01644009  3.57652955  4.23227104  5.00000000


     -----------------------------------------------
     Non-local corr. energy    =       0.17259719 Ry
     -----------------------------------------------

     Starting wfcs are   16 randomized atomic wfcs

     total cpu time spent up to now is       64.2 secs

     Self-consistent Calculation

     iteration #  1     ecut=   120.00 Ry     beta= 0.70
     Davidson diagonalization with overlap

---- Real-time Memory Report at c_bands before calling an iterative solver
             0 MiB given to the printing process from OS
             0 MiB allocation reported by mallinfo(arena+hblkhd)
             0 MiB available memory on the node where the printing process lives
------------------
     ethr =  1.00E-02,  avg # of iterations =  3.3


     -----------------------------------------------
     Non-local corr. energy    =       0.19594966 Ry
     -----------------------------------------------


     total cpu time spent up to now is       68.1 secs

     WARNING: integrated charge=    16.00000230, expected=    16.00000000

     total energy              =     -48.20972104 Ry
     estimated scf accuracy    <       0.35006796 Ry

     iteration #  2     ecut=   120.00 Ry     beta= 0.70
     Davidson diagonalization with overlap

---- Real-time Memory Report at c_bands before calling an iterative solver
             0 MiB given to the printing process from OS
             0 MiB allocation reported by mallinfo(arena+hblkhd)
             0 MiB available memory on the node where the printing process lives
------------------
     ethr =  2.19E-03,  avg # of iterations =  3.7


     -----------------------------------------------
     Non-local corr. energy    =       0.19658657 Ry
     -----------------------------------------------


     total cpu time spent up to now is       71.8 secs

     total energy              =     -48.25320893 Ry
     estimated scf accuracy    <       0.00511305 Ry

     iteration #  3     ecut=   120.00 Ry     beta= 0.70
     Davidson diagonalization with overlap

---- Real-time Memory Report at c_bands before calling an iterative solver
             0 MiB given to the printing process from OS
             0 MiB allocation reported by mallinfo(arena+hblkhd)
             0 MiB available memory on the node where the printing process lives
------------------
     c_bands:  1 eigenvalues not converged
     ethr =  3.20E-05,  avg # of iterations = 11.3


     -----------------------------------------------
     Non-local corr. energy    =       0.19620005 Ry
     -----------------------------------------------


     total cpu time spent up to now is       77.3 secs

     total energy              =     -48.25462906 Ry
     estimated scf accuracy    <       0.00097333 Ry

     iteration #  4     ecut=   120.00 Ry     beta= 0.70
     Davidson diagonalization with overlap

---- Real-time Memory Report at c_bands before calling an iterative solver
             0 MiB given to the printing process from OS
             0 MiB allocation reported by mallinfo(arena+hblkhd)
             0 MiB available memory on the node where the printing process lives
------------------
     ethr =  6.08E-06,  avg # of iterations =  3.9


     -----------------------------------------------
     Non-local corr. energy    =       0.19618421 Ry
     -----------------------------------------------


     total cpu time spent up to now is       81.2 secs

     total energy              =     -48.25485050 Ry
     estimated scf accuracy    <       0.00066838 Ry

     iteration #  5     ecut=   120.00 Ry     beta= 0.70
     Davidson diagonalization with overlap

---- Real-time Memory Report at c_bands before calling an iterative solver
             0 MiB given to the printing process from OS
             0 MiB allocation reported by mallinfo(arena+hblkhd)
             0 MiB available memory on the node where the printing process lives
------------------
     ethr =  4.18E-06,  avg # of iterations =  4.3


     -----------------------------------------------
     Non-local corr. energy    =       0.19630540 Ry
     -----------------------------------------------


     total cpu time spent up to now is       84.9 secs

     total energy              =     -48.25497699 Ry
     estimated scf accuracy    <       0.00000989 Ry

     iteration #  6     ecut=   120.00 Ry     beta= 0.70
     Davidson diagonalization with overlap

---- Real-time Memory Report at c_bands before calling an iterative solver
             0 MiB given to the printing process from OS
             0 MiB allocation reported by mallinfo(arena+hblkhd)
             0 MiB available memory on the node where the printing process lives
------------------
     ethr =  6.18E-08,  avg # of iterations =  2.4


     -----------------------------------------------
     Non-local corr. energy    =       0.19634921 Ry
     -----------------------------------------------


     total cpu time spent up to now is       88.4 secs

     total energy              =     -48.25497961 Ry
     estimated scf accuracy    <       0.00000563 Ry

     iteration #  7     ecut=   120.00 Ry     beta= 0.70
     Davidson diagonalization with overlap

---- Real-time Memory Report at c_bands before calling an iterative solver
             0 MiB given to the printing process from OS
             0 MiB allocation reported by mallinfo(arena+hblkhd)
             0 MiB available memory on the node where the printing process lives
------------------
     ethr =  3.52E-08,  avg # of iterations =  2.0


     -----------------------------------------------
     Non-local corr. energy    =       0.19632018 Ry
     -----------------------------------------------


     total cpu time spent up to now is       91.4 secs

     End of self-consistent calculation

          k = 0.0000 0.0000 0.0000 ( 11695 PWs)   bands (ev):

   -18.8148 -18.6964  -7.3185  -6.4688  -2.3440  -2.3440  -2.3312  -2.3311
     3.7655   4.3907   5.8325   7.8033

     occupation numbers 
     1.0000   1.0000   1.0000   1.0000   1.0000   1.0000   1.0000   1.0000
     0.0000   0.0000   0.0000   0.0000

          k = 0.0000 0.0962 0.0000 ( 11658 PWs)   bands (ev):

   -18.6508 -18.5336  -7.1200  -6.2754  -2.9934  -2.9761  -2.6810  -2.6670
     3.9857   4.6115   6.0494   8.0036

     occupation numbers 
     1.0000   1.0000   1.0000   1.0000   1.0000   1.0000   1.0000   1.0000
     0.0000   0.0000   0.0000   0.0000

          k = 0.0000 0.1925 0.0000 ( 11650 PWs)   bands (ev):

   -18.1606 -18.0470  -6.5296  -5.7007  -4.6290  -4.6012  -3.4712  -3.4551
     4.6460   5.2724   6.6985   8.5858

     occupation numbers 
     1.0000   1.0000   1.0000   1.0000   1.0000   1.0000   1.0000   1.0000
     0.0000   0.0000   0.0000   0.0000

          k = 0.0000 0.2887 0.0000 ( 11698 PWs)   bands (ev):

   -17.3501 -17.2422  -6.7260  -6.6858  -5.5653  -4.7648  -4.3500  -4.3320
     5.7432   6.3605   7.6340   7.8693

     occupation numbers 
     1.0000   1.0000   1.0000   1.0000   1.0000   1.0000   1.0000   1.0000
     0.0000   0.0000   0.0000   0.0000

          k = 0.0000 0.3849 0.0000 ( 11714 PWs)   bands (ev):

   -16.2314 -16.1312  -8.9284  -8.8755  -5.0834  -5.0642  -4.2749  -3.5205
     5.3562   5.8939   7.2670   7.9334

     occupation numbers 
     1.0000   1.0000   1.0000   1.0000   1.0000   1.0000   1.0000   1.0000
     0.0000   0.0000   0.0000   0.0000

          k = 0.0000 0.4811 0.0000 ( 11744 PWs)   bands (ev):

   -14.8365 -14.7452 -11.0273 -10.9624  -5.5565  -5.5366  -2.8158  -2.1349
     3.1551   3.8351   8.1773   8.3417

     occupation numbers 
     1.0000   1.0000   1.0000   1.0000   1.0000   1.0000   1.0000   1.0000
     0.0000   0.0000   0.0000   0.0000

          k = 0.0000-0.5774 0.0000 ( 11698 PWs)   bands (ev):

   -13.5796 -13.4933 -12.5268 -12.4559  -5.7190  -5.6989  -1.9341  -1.3252
     2.0105   2.7839   8.0998   8.2598

     occupation numbers 
     1.0000   1.0000   1.0000   1.0000   1.0000   1.0000   1.0000   1.0000
     0.0000   0.0000   0.0000   0.0000

          k = 0.0833 0.1443 0.0000 ( 11656 PWs)   bands (ev):

   -18.3237 -18.2089  -6.7255  -5.8912  -4.0266  -4.0031  -3.3556  -3.3384
     4.4262   5.0526   6.4832   8.4029

     occupation numbers 
     1.0000   1.0000   1.0000   1.0000   1.0000   1.0000   1.0000   1.0000
     0.0000   0.0000   0.0000   0.0000

          k = 0.0833 0.2406 0.0000 ( 11677 PWs)   bands (ev):

   -17.6734 -17.5632  -5.9472  -5.7352  -5.7017  -5.1347  -4.3514  -4.3302
     5.3060   5.9313   7.3459   8.6102

     occupation numbers 
     1.0000   1.0000   1.0000   1.0000   1.0000   1.0000   1.0000   1.0000
     0.0000   0.0000   0.0000   0.0000

          k = 0.0833 0.3368 0.0000 ( 11708 PWs)   bands (ev):

   -16.7086 -16.6052  -7.8069  -7.7609  -5.2375  -5.2139  -4.8135  -4.0378
     6.4134   6.6238   6.8286   7.3095

     occupation numbers 
     1.0000   1.0000   1.0000   1.0000   1.0000   1.0000   1.0000   1.0000
     0.0000   0.0000   0.0000   0.0000

          k = 0.0833 0.4330 0.0000 ( 11737 PWs)   bands (ev):

   -15.4486 -15.3536  -9.9285  -9.8700  -5.8727  -5.8477  -3.4058  -2.6879
     4.1490   4.7348   8.3432   9.0218

     occupation numbers 
     1.0000   1.0000   1.0000   1.0000   1.0000   1.0000   1.0000   1.0000
     0.0000   0.0000   0.0000   0.0000

          k = 0.0833 0.5292 0.0000 ( 11726 PWs)   bands (ev):

   -13.9717 -13.8851 -11.8670 -11.7980  -6.2014  -6.1758  -2.0531  -1.4211
     2.3183   3.0311   8.8240   8.9972

     occupation numbers 
     1.0000   1.0000   1.0000   1.0000   1.0000   1.0000   1.0000   1.0000
     0.0000   0.0000   0.0000   0.0000

          k = 0.1667 0.2887 0.0000 ( 11678 PWs)   bands (ev):

   -16.8687 -16.7643  -7.0677  -7.0271  -5.7090  -5.6793  -4.9956  -4.2129
     6.4028   6.8950   7.0227   7.2932

     occupation numbers 
     1.0000   1.0000   1.0000   1.0000   1.0000   1.0000   1.0000   1.0000
     0.0000   0.0000   0.0000   0.0000

          k = 0.1667 0.3849 0.0000 ( 11711 PWs)   bands (ev):

   -15.7611 -15.6641  -8.7938  -8.7428  -6.7648  -6.7303  -3.7204  -2.9838
     4.9139   5.3918   7.9257   8.5328

     occupation numbers 
     1.0000   1.0000   1.0000   1.0000   1.0000   1.0000   1.0000   1.0000
     0.0000   0.0000   0.0000   0.0000

          k = 0.1667 0.4811 0.0000 ( 11714 PWs)   bands (ev):

   -14.3862 -14.2981 -10.7019 -10.6393  -7.3420  -7.3054  -2.2593  -1.5921
     2.9523   3.5344   9.8422  10.6852

     occupation numbers 
     1.0000   1.0000   1.0000   1.0000   1.0000   1.0000   1.0000   1.0000
     0.0000   0.0000   0.0000   0.0000

          k = 0.1667 0.5774 0.0000 ( 11696 PWs)   bands (ev):

   -13.1580 -13.0754 -12.1301 -12.0610  -7.5272  -7.4901  -1.3317  -0.7325
     1.8424   2.5073  10.5656  10.8129

     occupation numbers 
     1.0000   1.0000   1.0000   1.0000   1.0000   1.0000   1.0000   1.0000
     0.0000   0.0000   0.0000   0.0000

          k = 0.2500 0.4330 0.0000 ( 11734 PWs)   bands (ev):

   -14.5336 -14.4447  -9.8327  -9.7753  -8.2427  -8.1990  -2.3506  -1.6694
     3.2913   3.7963   9.6344  10.1619

     occupation numbers 
     1.0000   1.0000   1.0000   1.0000   1.0000   1.0000   1.0000   1.0000
     0.0000   0.0000   0.0000   0.0000

          k = 0.2500 0.5292 0.0000 ( 11709 PWs)   bands (ev):

   -13.1138 -13.0337 -11.2507 -11.1845  -8.9507  -8.9033  -0.9293  -0.3193
     1.7447   2.3067  10.7591  11.6546

     occupation numbers 
     1.0000   1.0000   1.0000   1.0000   1.0000   1.0000   1.0000   1.0000
     0.0000   0.0000   0.0000   0.0000

          k = 0.3333 0.5774 0.0000 ( 11694 PWs)   bands (ev):

   -11.8992 -11.8991 -11.8270 -11.8269  -9.8380  -9.7865   0.4471   0.4471
     1.0144   1.0144  10.3201  12.0579

     occupation numbers 
     1.0000   1.0000   1.0000   1.0000   1.0000   1.0000   1.0000   1.0000
     0.0000   0.0000   0.0000   0.0000

     the Fermi energy is     0.7673 ev

!    total energy              =     -48.25498051 Ry
     estimated scf accuracy    <       0.00000029 Ry
     smearing contrib. (-TS)   =       0.00000000 Ry
     internal energy E=F+TS    =     -48.25498051 Ry

     The total energy is F=E-TS. E is the sum of the following terms:
     one-electron contribution =    -280.11562578 Ry
     hartree contribution      =     144.49258705 Ry
     xc contribution           =     -17.21047653 Ry
     ewald contribution        =     104.57853475 Ry

     convergence has been achieved in   7 iterations


     -----------------------------------------------
     Non-local corr. energy    =       0.19632018 Ry
     -----------------------------------------------


     Forces acting on atoms (cartesian axes, Ry/au):

     atom    1 type  1   force =    -0.00000000   -0.00000000   -0.00014127
     atom    2 type  1   force =    -0.00000000    0.00000000   -0.00014127
     atom    3 type  1   force =     0.00000000    0.00000000    0.00014127
     atom    4 type  1   force =     0.00000000   -0.00000000    0.00014127
     The non-local contrib.  to forces
     atom    1 type  1   force =    -0.00000000    0.00000000   -0.00045479
     atom    2 type  1   force =     0.00000000   -0.00000000   -0.00045479
     atom    3 type  1   force =    -0.00000000    0.00000000    0.00051604
     atom    4 type  1   force =     0.00000000   -0.00000000    0.00051604
     The ionic contribution  to forces
     atom    1 type  1   force =     0.00000851   -0.00000492  -11.31983665
     atom    2 type  1   force =    -0.00000851    0.00000492  -11.31983665
     atom    3 type  1   force =     0.00000851   -0.00000492   11.31983665
     atom    4 type  1   force =    -0.00000851    0.00000492   11.31983665
     The local contribution  to forces
     atom    1 type  1   force =     0.00000000    0.00000000   11.32059756
     atom    2 type  1   force =    -0.00000679    0.00000392   11.32059755
     atom    3 type  1   force =     0.00000000    0.00000000  -11.32049489
     atom    4 type  1   force =    -0.00000679    0.00000392  -11.32049488
     The core correction contribution to forces
     atom    1 type  1   force =    -0.00000000    0.00000000   -0.00003160
     atom    2 type  1   force =     0.00000053   -0.00000031   -0.00003160
     atom    3 type  1   force =    -0.00000000    0.00000000    0.00003308
     atom    4 type  1   force =     0.00000053   -0.00000031    0.00003308
     The Hubbard contrib.    to forces
     atom    1 type  1   force =     0.00000000    0.00000000    0.00000000
     atom    2 type  1   force =     0.00000000    0.00000000    0.00000000
     atom    3 type  1   force =     0.00000000    0.00000000    0.00000000
     atom    4 type  1   force =     0.00000000    0.00000000    0.00000000
     The SCF correction term to forces
     atom    1 type  1   force =     0.00000000   -0.00000000   -0.00000000
     atom    2 type  1   force =    -0.00000000    0.00000000   -0.00000000
     atom    3 type  1   force =     0.00000000   -0.00000000    0.00031975
     atom    4 type  1   force =    -0.00000000    0.00000000    0.00031975

     Total force =     0.000200     Total SCF correction =     0.000452
     SCF correction compared to forces is large: reduce conv_thr to get better values


     Computing stress (Cartesian axis) and pressure



     -----------------------------------------------
     Non-local corr. energy    =       0.19632018 Ry
     -----------------------------------------------

          total   stress  (Ry/bohr**3)                   (kbar)     P=        0.38
   0.00000455   0.00000000   0.00000000            0.67        0.00        0.00
   0.00000000   0.00000455   0.00000000            0.00        0.67        0.00
   0.00000000   0.00000000  -0.00000139            0.00        0.00       -0.20

     kinetic stress (kbar)   6035.63     -0.00      0.00
                               -0.00   6035.63      0.00
                                0.00      0.00   6644.36

     local   stress (kbar) -84055.92      0.01      0.00
                                0.01 -84055.92     -0.00
                                0.00     -0.00  85849.83

     nonloc. stress (kbar)   -614.29      0.00      0.00
                                0.00   -614.29      0.00
                                0.00      0.00   -513.41

     hartree stress (kbar)  39841.08     -0.00      0.00
                               -0.00  39841.08      0.00
                                0.00      0.00 -39374.78

     exc-cor stress (kbar)   -480.11     -0.00      0.00
                               -0.00   -480.11     -0.00
                                0.00     -0.00   -560.25

     corecor stress (kbar)   -915.39      0.00     -0.00
                                0.00   -915.39      0.00
                               -0.00      0.00   -890.33

     ewald   stress (kbar)  40185.58     -0.01      0.00
                               -0.01  40185.57      0.00
                                0.00      0.00 -51198.12

     hubbard stress (kbar)      0.00      0.00      0.00
                                0.00      0.00      0.00
                                0.00      0.00      0.00

     DFT-D   stress (kbar)      0.00      0.00      0.00
                                0.00      0.00      0.00
                                0.00      0.00      0.00

     XDM     stress (kbar)      0.00      0.00      0.00
                                0.00      0.00      0.00
                                0.00      0.00      0.00

     dft-nl  stress (kbar)      4.10      0.00      0.00
                                0.00      4.10     -0.00
                                0.00     -0.00     42.51

     TS-vdW  stress (kbar)      0.00      0.00      0.00
                                0.00      0.00      0.00
                                0.00      0.00      0.00

     MDB     stress (kbar)      0.00      0.00      0.00
                                0.00      0.00      0.00
                                0.00      0.00      0.00

     3D-RISM stress (kbar)      0.00      0.00      0.00
                                0.00      0.00      0.00
                                0.00      0.00      0.00


     BFGS Geometry Optimization
     Energy error            =      0.0E+00 Ry
     Gradient error          =      1.4E-04 Ry/Bohr
     Cell gradient error     =      6.7E-01 kbar

     number of scf cycles    =   1
     number of bfgs steps    =   0

     enthalpy           new  =     -48.2549805072 Ry

     new trust radius        =       0.0005219398 bohr
     new conv_thr            =       0.0000010000 Ry

     new unit-cell volume =    527.43927 a.u.^3 (    78.15844 Ang^3 )
     density =      1.02073 g/cm^3

CELL_PARAMETERS (alat=  4.66447000)
   1.000113644   0.000000000   0.000000000
  -0.500056822   0.866123822   0.000000000
   0.000000000   0.000000000   5.999792235

ATOMIC_POSITIONS (crystal)
C             0.0000000000        0.0000000000        0.0000000000    0   0   0
C             0.6666670000        0.3333330000        0.0000000000    0   0   0
C             0.0000000000        0.0000000000        0.2348250278
C             0.6666670000        0.3333330000        0.2348250278



     Writing config-only to output data dir ./tmp/C2L_AA_PBE_vdW.save/
     NEW-OLD atomic charge density approx. for the potential


     -----------------------------------------------
     Non-local corr. energy    =       0.19635694 Ry
     -----------------------------------------------

     extrapolated charge   16.00308, renormalised to   16.00000

     total cpu time spent up to now is      107.4 secs

     Self-consistent Calculation

     iteration #  1     ecut=   120.00 Ry     beta= 0.70
     Davidson diagonalization with overlap

---- Real-time Memory Report at c_bands before calling an iterative solver
             0 MiB given to the printing process from OS
             0 MiB allocation reported by mallinfo(arena+hblkhd)
             0 MiB available memory on the node where the printing process lives
------------------
     ethr =  1.00E-06,  avg # of iterations =  1.7

     Threshold (ethr) on eigenvalues was too large:
     Diagonalizing with lowered threshold

     Davidson diagonalization with overlap

---- Real-time Memory Report at c_bands before calling an iterative solver
             0 MiB given to the printing process from OS
             0 MiB allocation reported by mallinfo(arena+hblkhd)
             0 MiB available memory on the node where the printing process lives
------------------
     ethr =  4.55E-08,  avg # of iterations =  1.0


     -----------------------------------------------
     Non-local corr. energy    =       0.19630913 Ry
     -----------------------------------------------


     total cpu time spent up to now is      112.8 secs

     total energy              =     -48.25497103 Ry
     estimated scf accuracy    <       0.00000775 Ry

     iteration #  2     ecut=   120.00 Ry     beta= 0.70
     Davidson diagonalization with overlap

---- Real-time Memory Report at c_bands before calling an iterative solver
             0 MiB given to the printing process from OS
             0 MiB allocation reported by mallinfo(arena+hblkhd)
             0 MiB available memory on the node where the printing process lives
------------------
     ethr =  4.85E-08,  avg # of iterations =  2.8


     -----------------------------------------------
     Non-local corr. energy    =       0.19631741 Ry
     -----------------------------------------------


     total cpu time spent up to now is      116.7 secs

     total energy              =     -48.25497849 Ry
     estimated scf accuracy    <       0.00003231 Ry

     iteration #  3     ecut=   120.00 Ry     beta= 0.70
     Davidson diagonalization with overlap

---- Real-time Memory Report at c_bands before calling an iterative solver
             0 MiB given to the printing process from OS
             0 MiB allocation reported by mallinfo(arena+hblkhd)
             0 MiB available memory on the node where the printing process lives
------------------
     ethr =  4.85E-08,  avg # of iterations =  2.0


     -----------------------------------------------
     Non-local corr. energy    =       0.19632440 Ry
     -----------------------------------------------


     total cpu time spent up to now is      120.3 secs

     total energy              =     -48.25498120 Ry
     estimated scf accuracy    <       0.00000298 Ry

     iteration #  4     ecut=   120.00 Ry     beta= 0.70
     Davidson diagonalization with overlap

---- Real-time Memory Report at c_bands before calling an iterative solver
             0 MiB given to the printing process from OS
             0 MiB allocation reported by mallinfo(arena+hblkhd)
             0 MiB available memory on the node where the printing process lives
------------------
     ethr =  1.86E-08,  avg # of iterations =  1.1


     -----------------------------------------------
     Non-local corr. energy    =       0.19632665 Ry
     -----------------------------------------------


     total cpu time spent up to now is      123.3 secs

     total energy              =     -48.25498114 Ry
     estimated scf accuracy    <       0.00000149 Ry

     iteration #  5     ecut=   120.00 Ry     beta= 0.70
     Davidson diagonalization with overlap

---- Real-time Memory Report at c_bands before calling an iterative solver
             0 MiB given to the printing process from OS
             0 MiB allocation reported by mallinfo(arena+hblkhd)
             0 MiB available memory on the node where the printing process lives
------------------
     ethr =  9.28E-09,  avg # of iterations =  1.0


     -----------------------------------------------
     Non-local corr. energy    =       0.19633297 Ry
     -----------------------------------------------


     total cpu time spent up to now is      126.3 secs

     total energy              =     -48.25498088 Ry
     estimated scf accuracy    <       0.00000110 Ry

     iteration #  6     ecut=   120.00 Ry     beta= 0.70
     Davidson diagonalization with overlap

---- Real-time Memory Report at c_bands before calling an iterative solver
             0 MiB given to the printing process from OS
             0 MiB allocation reported by mallinfo(arena+hblkhd)
             0 MiB available memory on the node where the printing process lives
------------------
     ethr =  6.88E-09,  avg # of iterations =  1.4


     -----------------------------------------------
     Non-local corr. energy    =       0.19634293 Ry
     -----------------------------------------------


     total cpu time spent up to now is      129.3 secs

     End of self-consistent calculation

          k = 0.0000 0.0000 0.0000 ( 11695 PWs)   bands (ev):

   -18.8192 -18.7008  -7.3221  -6.4723  -2.3522  -2.3522  -2.3393  -2.3393
     3.7667   4.3916   5.8398   7.8077

     occupation numbers 
     1.0000   1.0000   1.0000   1.0000   1.0000   1.0000   1.0000   1.0000
     0.0000   0.0000   0.0000   0.0000

          k = 0.0000 0.0962-0.0000 ( 11658 PWs)   bands (ev):

   -18.6553 -18.5380  -7.1237  -6.2790  -3.0015  -2.9841  -2.6890  -2.6750
     3.9868   4.6123   6.0565   8.0079

     occupation numbers 
     1.0000   1.0000   1.0000   1.0000   1.0000   1.0000   1.0000   1.0000
     0.0000   0.0000   0.0000   0.0000

          k = 0.0000 0.1924-0.0000 ( 11650 PWs)   bands (ev):

   -18.1652 -18.0516  -6.5335  -5.7045  -4.6367  -4.6089  -3.4790  -3.4628
     4.6469   5.2731   6.7051   8.5895

     occupation numbers 
     1.0000   1.0000   1.0000   1.0000   1.0000   1.0000   1.0000   1.0000
     0.0000   0.0000   0.0000   0.0000

          k = 0.0000 0.2886-0.0000 ( 11698 PWs)   bands (ev):

   -17.3549 -17.2470  -6.7332  -6.6929  -5.5695  -4.7690  -4.3574  -4.3394
     5.7436   6.3608   7.6301   7.8699

     occupation numbers 
     1.0000   1.0000   1.0000   1.0000   1.0000   1.0000   1.0000   1.0000
     0.0000   0.0000   0.0000   0.0000

          k = 0.0000 0.3849-0.0000 ( 11714 PWs)   bands (ev):

   -16.2365 -16.1363  -8.9350  -8.8821  -5.0905  -5.0713  -4.2795  -3.5251
     5.3485   5.8863   7.2667   7.9331

     occupation numbers 
     1.0000   1.0000   1.0000   1.0000   1.0000   1.0000   1.0000   1.0000
     0.0000   0.0000   0.0000   0.0000

          k = 0.0000 0.4811-0.0000 ( 11744 PWs)   bands (ev):

   -14.8420 -14.7506 -11.0333 -10.9685  -5.5635  -5.5436  -2.8210  -2.1401
     3.1483   3.8283   8.1671   8.3314

     occupation numbers 
     1.0000   1.0000   1.0000   1.0000   1.0000   1.0000   1.0000   1.0000
     0.0000   0.0000   0.0000   0.0000

          k = 0.0000-0.5773 0.0000 ( 11698 PWs)   bands (ev):

   -13.5858 -13.4995 -12.5320 -12.4611  -5.7259  -5.7058  -1.9397  -1.3307
     2.0043   2.7777   8.0894   8.2495

     occupation numbers 
     1.0000   1.0000   1.0000   1.0000   1.0000   1.0000   1.0000   1.0000
     0.0000   0.0000   0.0000   0.0000

          k = 0.0833 0.1443-0.0000 ( 11656 PWs)   bands (ev):

   -18.3283 -18.2134  -6.7293  -5.8949  -4.0344  -4.0109  -3.3634  -3.3462
     4.4271   5.0534   6.4900   8.4072

     occupation numbers 
     1.0000   1.0000   1.0000   1.0000   1.0000   1.0000   1.0000   1.0000
     0.0000   0.0000   0.0000   0.0000

          k = 0.0833 0.2405-0.0000 ( 11677 PWs)   bands (ev):

   -17.6781 -17.5679  -5.9512  -5.7427  -5.7091  -5.1387  -4.3588  -4.3376
     5.3066   5.9316   7.3520   8.6014

     occupation numbers 
     1.0000   1.0000   1.0000   1.0000   1.0000   1.0000   1.0000   1.0000
     0.0000   0.0000   0.0000   0.0000

          k = 0.0833 0.3367-0.0000 ( 11708 PWs)   bands (ev):

   -16.7136 -16.6101  -7.8138  -7.7678  -5.2446  -5.2210  -4.8179  -4.0422
     6.4053   6.6237   6.8214   7.3085

     occupation numbers 
     1.0000   1.0000   1.0000   1.0000   1.0000   1.0000   1.0000   1.0000
     0.0000   0.0000   0.0000   0.0000

          k = 0.0833 0.4330-0.0000 ( 11737 PWs)   bands (ev):

   -15.4539 -15.3588  -9.9348  -9.8764  -5.8796  -5.8546  -3.4107  -2.6928
     4.1417   4.7275   8.3422   9.0119

     occupation numbers 
     1.0000   1.0000   1.0000   1.0000   1.0000   1.0000   1.0000   1.0000
     0.0000   0.0000   0.0000   0.0000

          k = 0.0833 0.5292-0.0000 ( 11726 PWs)   bands (ev):

   -13.9775 -13.8910 -11.8727 -11.8037  -6.2082  -6.1826  -2.0586  -1.4265
     2.3119   3.0247   8.8135   8.9867

     occupation numbers 
     1.0000   1.0000   1.0000   1.0000   1.0000   1.0000   1.0000   1.0000
     0.0000   0.0000   0.0000   0.0000

          k = 0.1666 0.2886-0.0000 ( 11678 PWs)   bands (ev):

   -16.8737 -16.7692  -7.0750  -7.0344  -5.7158  -5.6861  -5.0000  -4.2172
     6.4030   6.8863   7.0230   7.2845

     occupation numbers 
     1.0000   1.0000   1.0000   1.0000   1.0000   1.0000   1.0000   1.0000
     0.0000   0.0000   0.0000   0.0000

          k = 0.1666 0.3849-0.0000 ( 11711 PWs)   bands (ev):

   -15.7663 -15.6693  -8.8007  -8.7496  -6.7713  -6.7368  -3.7252  -2.9885
     4.9061   5.3841   7.9253   8.5325

     occupation numbers 
     1.0000   1.0000   1.0000   1.0000   1.0000   1.0000   1.0000   1.0000
     0.0000   0.0000   0.0000   0.0000

          k = 0.1666 0.4811-0.0000 ( 11714 PWs)   bands (ev):

   -14.3918 -14.3037 -10.7081 -10.6456  -7.3484  -7.3118  -2.2647  -1.5974
     2.9454   3.5275   9.8407  10.6745

     occupation numbers 
     1.0000   1.0000   1.0000   1.0000   1.0000   1.0000   1.0000   1.0000
     0.0000   0.0000   0.0000   0.0000

          k = 0.1666 0.5773-0.0000 ( 11696 PWs)   bands (ev):

   -13.1643 -13.0817 -12.1356 -12.0665  -7.5336  -7.4964  -1.3375  -0.7382
     1.8360   2.5009  10.5548  10.8020

     occupation numbers 
     1.0000   1.0000   1.0000   1.0000   1.0000   1.0000   1.0000   1.0000
     0.0000   0.0000   0.0000   0.0000

          k = 0.2500 0.4330-0.0000 ( 11734 PWs)   bands (ev):

   -14.5391 -14.4502  -9.8395  -9.7821  -8.2485  -8.2049  -2.3559  -1.6747
     3.2840   3.7891   9.6333  10.1610

     occupation numbers 
     1.0000   1.0000   1.0000   1.0000   1.0000   1.0000   1.0000   1.0000
     0.0000   0.0000   0.0000   0.0000

          k = 0.2500 0.5292-0.0000 ( 11709 PWs)   bands (ev):

   -13.1198 -13.0397 -11.2570 -11.1908  -8.9564  -8.9090  -0.9351  -0.3251
     1.7380   2.3000  10.7537  11.6516

     occupation numbers 
     1.0000   1.0000   1.0000   1.0000   1.0000   1.0000   1.0000   1.0000
     0.0000   0.0000   0.0000   0.0000

          k = 0.3333 0.5773-0.0000 ( 11694 PWs)   bands (ev):

   -11.9057 -11.9056 -11.8334 -11.8334  -9.8430  -9.7915   0.4407   0.4408
     1.0081   1.0082  10.3150  12.0546

     occupation numbers 
     1.0000   1.0000   1.0000   1.0000   1.0000   1.0000   1.0000   1.0000
     0.0000   0.0000   0.0000   0.0000

     the Fermi energy is     0.7588 ev

!    total energy              =     -48.25498061 Ry
     estimated scf accuracy    <       0.00000034 Ry
     smearing contrib. (-TS)   =       0.00000000 Ry
     internal energy E=F+TS    =     -48.25498061 Ry

     The total energy is F=E-TS. E is the sum of the following terms:
     one-electron contribution =    -280.03709086 Ry
     hartree contribution      =     144.45573459 Ry
     xc contribution           =     -17.20987166 Ry
     ewald contribution        =     104.53624732 Ry

     convergence has been achieved in   6 iterations


     -----------------------------------------------
     Non-local corr. energy    =       0.19634293 Ry
     -----------------------------------------------


     Forces acting on atoms (cartesian axes, Ry/au):

     atom    1 type  1   force =     0.00000000    0.00000000   -0.00007939
     atom    2 type  1   force =     0.00000000    0.00000000   -0.00007939
     atom    3 type  1   force =     0.00000000    0.00000000    0.00007939
     atom    4 type  1   force =     0.00000000   -0.00000000    0.00007939
     The non-local contrib.  to forces
     atom    1 type  1   force =     0.00000000    0.00000000   -0.00047741
     atom    2 type  1   force =     0.00000000   -0.00000000   -0.00047741
     atom    3 type  1   force =     0.00000000    0.00000000    0.00050783
     atom    4 type  1   force =     0.00000000    0.00000000    0.00050783
     The ionic contribution  to forces
     atom    1 type  1   force =     0.00000851   -0.00000491  -11.31705034
     atom    2 type  1   force =    -0.00000851    0.00000491  -11.31705034
     atom    3 type  1   force =     0.00000851   -0.00000491   11.31705034
     atom    4 type  1   force =    -0.00000851    0.00000491   11.31705034
     The local contribution  to forces
     atom    1 type  1   force =     0.00000000    0.00000000   11.31870344
     atom    2 type  1   force =    -0.00000679    0.00000392   11.31870344
     atom    3 type  1   force =    -0.00000000    0.00000000  -11.31869482
     atom    4 type  1   force =    -0.00000679    0.00000392  -11.31869481
     The core correction contribution to forces
     atom    1 type  1   force =    -0.00000000    0.00000000   -0.00002626
     atom    2 type  1   force =     0.00000053   -0.00000031   -0.00002626
     atom    3 type  1   force =    -0.00000000    0.00000000    0.00002563
     atom    4 type  1   force =     0.00000053   -0.00000031    0.00002563
     The Hubbard contrib.    to forces
     atom    1 type  1   force =     0.00000000    0.00000000    0.00000000
     atom    2 type  1   force =     0.00000000    0.00000000    0.00000000
     atom    3 type  1   force =     0.00000000    0.00000000    0.00000000
     atom    4 type  1   force =     0.00000000    0.00000000    0.00000000
     The SCF correction term to forces
     atom    1 type  1   force =    -0.00000000    0.00000000   -0.00000000
     atom    2 type  1   force =     0.00000000   -0.00000000   -0.00000000
     atom    3 type  1   force =    -0.00000000    0.00000000    0.00120288
     atom    4 type  1   force =     0.00000000   -0.00000000    0.00120288

     Total force =     0.000112     Total SCF correction =     0.001701
     SCF correction compared to forces is large: reduce conv_thr to get better values


     Computing stress (Cartesian axis) and pressure



     -----------------------------------------------
     Non-local corr. energy    =       0.19634293 Ry
     -----------------------------------------------

          total   stress  (Ry/bohr**3)                   (kbar)     P=        0.19
  -0.00000042  -0.00000000   0.00000000           -0.06       -0.00        0.00
   0.00000000  -0.00000042   0.00000000            0.00       -0.06        0.00
   0.00000000   0.00000000   0.00000477            0.00        0.00        0.70

     kinetic stress (kbar)   6033.84     -0.00      0.00
                               -0.00   6033.84      0.00
                                0.00      0.00   6643.35

     local   stress (kbar) -84016.55      0.01     -0.00
                                0.01 -84016.54      0.00
                               -0.00      0.00  85808.96

     nonloc. stress (kbar)   -614.02     -0.00     -0.00
                               -0.00   -614.02     -0.00
                               -0.00     -0.00   -513.31

     hartree stress (kbar)  39822.96     -0.00     -0.00
                               -0.00  39822.96     -0.00
                               -0.00     -0.00 -39356.60

     exc-cor stress (kbar)   -479.97     -0.00      0.00
                               -0.00   -479.97     -0.00
                                0.00     -0.00   -560.09

     corecor stress (kbar)   -915.20      0.00     -0.00
                                0.00   -915.20      0.00
                               -0.00      0.00   -890.16

     ewald   stress (kbar)  40164.79     -0.01      0.00
                               -0.01  40164.77     -0.00
                                0.00     -0.00 -51173.95

     hubbard stress (kbar)      0.00      0.00      0.00
                                0.00      0.00      0.00
                                0.00      0.00      0.00

     DFT-D   stress (kbar)      0.00      0.00      0.00
                                0.00      0.00      0.00
                                0.00      0.00      0.00

     XDM     stress (kbar)      0.00      0.00      0.00
                                0.00      0.00      0.00
                                0.00      0.00      0.00

     dft-nl  stress (kbar)      4.10      0.00      0.00
                                0.00      4.10     -0.00
                                0.00     -0.00     42.50

     TS-vdW  stress (kbar)      0.00      0.00      0.00
                                0.00      0.00      0.00
                                0.00      0.00      0.00

     MDB     stress (kbar)      0.00      0.00      0.00
                                0.00      0.00      0.00
                                0.00      0.00      0.00

     3D-RISM stress (kbar)      0.00      0.00      0.00
                                0.00      0.00      0.00
                                0.00      0.00      0.00

     Energy error            =      1.1E-07 Ry
     Gradient error          =      7.9E-05 Ry/Bohr
     Cell gradient error     =      7.0E-01 kbar

     number of scf cycles    =   2
     number of bfgs steps    =   1

     enthalpy           old  =     -48.2549805072 Ry
     enthalpy           new  =     -48.2549806124 Ry

     CASE: enthalpy          _new < enthalpy          _old

     new trust radius        =       0.0004067183 bohr
     new conv_thr            =       0.0000000100 Ry

     new unit-cell volume =    527.51791 a.u.^3 (    78.17009 Ang^3 )
     density =      1.02058 g/cm^3

CELL_PARAMETERS (alat=  4.66447000)
   1.000143925   0.000000000  -0.000000000
  -0.500071963   0.866150047  -0.000000000
   0.000000000   0.000000000   6.000323503

ATOMIC_POSITIONS (crystal)
C             0.0000000000        0.0000000000        0.0000000000    0   0   0
C             0.6666670000        0.3333330000        0.0000000000    0   0   0
C            -0.0000000000        0.0000000000        0.2348291506
C             0.6666670000        0.3333330000        0.2348291506



     Writing config-only to output data dir ./tmp/C2L_AA_PBE_vdW.save/
     NEW-OLD atomic charge density approx. for the potential


     -----------------------------------------------
     Non-local corr. energy    =       0.19636898 Ry
     -----------------------------------------------

     extrapolated charge   16.00239, renormalised to   16.00000

     total cpu time spent up to now is      145.1 secs

     Self-consistent Calculation

     iteration #  1     ecut=   120.00 Ry     beta= 0.70
     Davidson diagonalization with overlap

---- Real-time Memory Report at c_bands before calling an iterative solver
             0 MiB given to the printing process from OS
             0 MiB allocation reported by mallinfo(arena+hblkhd)
             0 MiB available memory on the node where the printing process lives
------------------
     ethr =  1.00E-06,  avg # of iterations =  1.7

     Threshold (ethr) on eigenvalues was too large:
     Diagonalizing with lowered threshold

     Davidson diagonalization with overlap

---- Real-time Memory Report at c_bands before calling an iterative solver
             0 MiB given to the printing process from OS
             0 MiB allocation reported by mallinfo(arena+hblkhd)
             0 MiB available memory on the node where the printing process lives
------------------
     ethr =  5.89E-08,  avg # of iterations =  1.0


     -----------------------------------------------
     Non-local corr. energy    =       0.19632415 Ry
     -----------------------------------------------


     total cpu time spent up to now is      150.6 secs

     total energy              =     -48.25497117 Ry
     estimated scf accuracy    <       0.00000998 Ry

     iteration #  2     ecut=   120.00 Ry     beta= 0.70
     Davidson diagonalization with overlap

---- Real-time Memory Report at c_bands before calling an iterative solver
             0 MiB given to the printing process from OS
             0 MiB allocation reported by mallinfo(arena+hblkhd)
             0 MiB available memory on the node where the printing process lives
------------------
     ethr =  6.24E-08,  avg # of iterations =  2.5


     -----------------------------------------------
     Non-local corr. energy    =       0.19633027 Ry
     -----------------------------------------------


     total cpu time spent up to now is      154.7 secs

     total energy              =     -48.25497769 Ry
     estimated scf accuracy    <       0.00003076 Ry

     iteration #  3     ecut=   120.00 Ry     beta= 0.70
     Davidson diagonalization with overlap

---- Real-time Memory Report at c_bands before calling an iterative solver
             0 MiB given to the printing process from OS
             0 MiB allocation reported by mallinfo(arena+hblkhd)
             0 MiB available memory on the node where the printing process lives
------------------
     ethr =  6.24E-08,  avg # of iterations =  2.0


     -----------------------------------------------
     Non-local corr. energy    =       0.19633712 Ry
     -----------------------------------------------


     total cpu time spent up to now is      157.7 secs

     total energy              =     -48.25498106 Ry
     estimated scf accuracy    <       0.00000160 Ry

     iteration #  4     ecut=   120.00 Ry     beta= 0.70
     Davidson diagonalization with overlap

---- Real-time Memory Report at c_bands before calling an iterative solver
             0 MiB given to the printing process from OS
             0 MiB allocation reported by mallinfo(arena+hblkhd)
             0 MiB available memory on the node where the printing process lives
------------------
     ethr =  1.00E-08,  avg # of iterations =  1.5


     -----------------------------------------------
     Non-local corr. energy    =       0.19634289 Ry
     -----------------------------------------------


     total cpu time spent up to now is      160.7 secs

     total energy              =     -48.25498096 Ry
     estimated scf accuracy    <       0.00000058 Ry

     iteration #  5     ecut=   120.00 Ry     beta= 0.70
     Davidson diagonalization with overlap

---- Real-time Memory Report at c_bands before calling an iterative solver
             0 MiB given to the printing process from OS
             0 MiB allocation reported by mallinfo(arena+hblkhd)
             0 MiB available memory on the node where the printing process lives
------------------
     ethr =  3.61E-09,  avg # of iterations =  1.8


     -----------------------------------------------
     Non-local corr. energy    =       0.19634457 Ry
     -----------------------------------------------


     total cpu time spent up to now is      163.7 secs

     total energy              =     -48.25498099 Ry
     estimated scf accuracy    <       0.00000010 Ry

     iteration #  6     ecut=   120.00 Ry     beta= 0.70
     Davidson diagonalization with overlap

---- Real-time Memory Report at c_bands before calling an iterative solver
             0 MiB given to the printing process from OS
             0 MiB allocation reported by mallinfo(arena+hblkhd)
             0 MiB available memory on the node where the printing process lives
------------------
     ethr =  6.23E-10,  avg # of iterations =  2.1


     -----------------------------------------------
     Non-local corr. energy    =       0.19634618 Ry
     -----------------------------------------------


     total cpu time spent up to now is      167.0 secs

     total energy              =     -48.25498097 Ry
     estimated scf accuracy    <       0.00000003 Ry

     iteration #  7     ecut=   120.00 Ry     beta= 0.70
     Davidson diagonalization with overlap

---- Real-time Memory Report at c_bands before calling an iterative solver
             0 MiB given to the printing process from OS
             0 MiB allocation reported by mallinfo(arena+hblkhd)
             0 MiB available memory on the node where the printing process lives
------------------
     ethr =  2.04E-10,  avg # of iterations =  2.0


     -----------------------------------------------
     Non-local corr. energy    =       0.19634713 Ry
     -----------------------------------------------


     total cpu time spent up to now is      170.2 secs

     End of self-consistent calculation

          k = 0.0000 0.0000 0.0000 ( 11695 PWs)   bands (ev):

   -18.8166 -18.6983  -7.3197  -6.4705  -2.3502  -2.3502  -2.3374  -2.3373
     3.7659   4.3901   5.8394   7.8075

     occupation numbers 
     1.0000   1.0000   1.0000   1.0000   1.0000   1.0000   1.0000   1.0000
     0.0000   0.0000   0.0000   0.0000

          k =-0.0000 0.0962-0.0000 ( 11658 PWs)   bands (ev):

   -18.6526 -18.5355  -7.1213  -6.2771  -2.9995  -2.9821  -2.6870  -2.6730
     3.9860   4.6109   6.0561   8.0077

     occupation numbers 
     1.0000   1.0000   1.0000   1.0000   1.0000   1.0000   1.0000   1.0000
     0.0000   0.0000   0.0000   0.0000

          k =-0.0000 0.1924-0.0000 ( 11650 PWs)   bands (ev):

   -18.1626 -18.0491  -6.5311  -5.7027  -4.6346  -4.6069  -3.4769  -3.4607
     4.6461   5.2716   6.7048   8.5892

     occupation numbers 
     1.0000   1.0000   1.0000   1.0000   1.0000   1.0000   1.0000   1.0000
     0.0000   0.0000   0.0000   0.0000

          k =-0.0000 0.2886-0.0000 ( 11698 PWs)   bands (ev):

   -17.3523 -17.2445  -6.7311  -6.6908  -5.5672  -4.7672  -4.3552  -4.3373
     5.7428   6.3592   7.6310   7.8697

     occupation numbers 
     1.0000   1.0000   1.0000   1.0000   1.0000   1.0000   1.0000   1.0000
     0.0000   0.0000   0.0000   0.0000

          k =-0.0000 0.3848-0.0000 ( 11714 PWs)   bands (ev):

   -16.2340 -16.1339  -8.9328  -8.8799  -5.0883  -5.0691  -4.2773  -3.5234
     5.3500   5.8873   7.2659   7.9315

     occupation numbers 
     1.0000   1.0000   1.0000   1.0000   1.0000   1.0000   1.0000   1.0000
     0.0000   0.0000   0.0000   0.0000

          k =-0.0000 0.4811-0.0000 ( 11744 PWs)   bands (ev):

   -14.8396 -14.7483 -11.0310 -10.9662  -5.5613  -5.5414  -2.8189  -2.1385
     3.1500   3.8295   8.1681   8.3322

     occupation numbers 
     1.0000   1.0000   1.0000   1.0000   1.0000   1.0000   1.0000   1.0000
     0.0000   0.0000   0.0000   0.0000

          k = 0.0000-0.5773 0.0000 ( 11698 PWs)   bands (ev):

   -13.5836 -13.4973 -12.5295 -12.4587  -5.7237  -5.7036  -1.9377  -1.3291
     2.0061   2.7789   8.0904   8.2503

     occupation numbers 
     1.0000   1.0000   1.0000   1.0000   1.0000   1.0000   1.0000   1.0000
     0.0000   0.0000   0.0000   0.0000

          k = 0.0833 0.1443-0.0000 ( 11656 PWs)   bands (ev):

   -18.3256 -18.2109  -6.7269  -5.8931  -4.0324  -4.0089  -3.3613  -3.3441
     4.4263   5.0519   6.4897   8.4070

     occupation numbers 
     1.0000   1.0000   1.0000   1.0000   1.0000   1.0000   1.0000   1.0000
     0.0000   0.0000   0.0000   0.0000

          k = 0.0833 0.2405-0.0000 ( 11677 PWs)   bands (ev):

   -17.6755 -17.5655  -5.9489  -5.7406  -5.7071  -5.1369  -4.3566  -4.3354
     5.3058   5.9301   7.3517   8.6025

     occupation numbers 
     1.0000   1.0000   1.0000   1.0000   1.0000   1.0000   1.0000   1.0000
     0.0000   0.0000   0.0000   0.0000

          k = 0.0833 0.3367-0.0000 ( 11708 PWs)   bands (ev):

   -16.7110 -16.6077  -7.8117  -7.7657  -5.2424  -5.2188  -4.8157  -4.0405
     6.4066   6.6229   6.8221   7.3072

     occupation numbers 
     1.0000   1.0000   1.0000   1.0000   1.0000   1.0000   1.0000   1.0000
     0.0000   0.0000   0.0000   0.0000

          k = 0.0833 0.4330-0.0000 ( 11737 PWs)   bands (ev):

   -15.4514 -15.3565  -9.9326  -9.8742  -5.8773  -5.8524  -3.4086  -2.6911
     4.1433   4.7287   8.3415   9.0127

     occupation numbers 
     1.0000   1.0000   1.0000   1.0000   1.0000   1.0000   1.0000   1.0000
     0.0000   0.0000   0.0000   0.0000

          k = 0.0833 0.5292-0.0000 ( 11726 PWs)   bands (ev):

   -13.9751 -13.8887 -11.8703 -11.8014  -6.2059  -6.1804  -2.0566  -1.4250
     2.3137   3.0259   8.8145   8.9875

     occupation numbers 
     1.0000   1.0000   1.0000   1.0000   1.0000   1.0000   1.0000   1.0000
     0.0000   0.0000   0.0000   0.0000

          k = 0.1666 0.2886-0.0000 ( 11678 PWs)   bands (ev):

   -16.8711 -16.7667  -7.0728  -7.0323  -5.7135  -5.6839  -4.9977  -4.2155
     6.4021   6.8877   7.0214   7.2855

     occupation numbers 
     1.0000   1.0000   1.0000   1.0000   1.0000   1.0000   1.0000   1.0000
     0.0000   0.0000   0.0000   0.0000

          k = 0.1666 0.3848-0.0000 ( 11711 PWs)   bands (ev):

   -15.7638 -15.6669  -8.7985  -8.7475  -6.7690  -6.7345  -3.7230  -2.9869
     4.9076   5.3852   7.9244   8.5308

     occupation numbers 
     1.0000   1.0000   1.0000   1.0000   1.0000   1.0000   1.0000   1.0000
     0.0000   0.0000   0.0000   0.0000

          k = 0.1666 0.4811-0.0000 ( 11714 PWs)   bands (ev):

   -14.3894 -14.3014 -10.7058 -10.6433  -7.3461  -7.3095  -2.2626  -1.5958
     2.9471   3.5287   9.8399  10.6749

     occupation numbers 
     1.0000   1.0000   1.0000   1.0000   1.0000   1.0000   1.0000   1.0000
     0.0000   0.0000   0.0000   0.0000

          k = 0.1666 0.5773-0.0000 ( 11696 PWs)   bands (ev):

   -13.1620 -13.0795 -12.1331 -12.0641  -7.5313  -7.4942  -1.3355  -0.7367
     1.8378   2.5021  10.5558  10.8027

     occupation numbers 
     1.0000   1.0000   1.0000   1.0000   1.0000   1.0000   1.0000   1.0000
     0.0000   0.0000   0.0000   0.0000

          k = 0.2500 0.4330-0.0000 ( 11734 PWs)   bands (ev):

   -14.5367 -14.4479  -9.8373  -9.7800  -8.2461  -8.2025  -2.3538  -1.6731
     3.2856   3.7903   9.6324  10.1594

     occupation numbers 
     1.0000   1.0000   1.0000   1.0000   1.0000   1.0000   1.0000   1.0000
     0.0000   0.0000   0.0000   0.0000

          k = 0.2500 0.5292-0.0000 ( 11709 PWs)   bands (ev):

   -13.1175 -13.0375 -11.2547 -11.1886  -8.9539  -8.9066  -0.9332  -0.3236
     1.7397   2.3014  10.7554  11.6510

     occupation numbers 
     1.0000   1.0000   1.0000   1.0000   1.0000   1.0000   1.0000   1.0000
     0.0000   0.0000   0.0000   0.0000

          k = 0.3333 0.5773-0.0000 ( 11694 PWs)   bands (ev):

   -11.9034 -11.9034 -11.8313 -11.8313  -9.8404  -9.7889   0.4426   0.4426
     1.0095   1.0096  10.3168  12.0539

     occupation numbers 
     1.0000   1.0000   1.0000   1.0000   1.0000   1.0000   1.0000   1.0000
     0.0000   0.0000   0.0000   0.0000

     the Fermi energy is     0.7596 ev

!    total energy              =     -48.25498097 Ry
     estimated scf accuracy    <          3.5E-09 Ry
     smearing contrib. (-TS)   =       0.00000000 Ry
     internal energy E=F+TS    =     -48.25498097 Ry

     The total energy is F=E-TS. E is the sum of the following terms:
     one-electron contribution =    -280.04221837 Ry
     hartree contribution      =     144.45554166 Ry
     xc contribution           =     -17.20946589 Ry
     ewald contribution        =     104.54116163 Ry

     convergence has been achieved in   7 iterations


     -----------------------------------------------
     Non-local corr. energy    =       0.19634713 Ry
     -----------------------------------------------


     Forces acting on atoms (cartesian axes, Ry/au):

     atom    1 type  1   force =    -0.00000000    0.00000000   -0.00014441
     atom    2 type  1   force =    -0.00000000    0.00000000   -0.00014441
     atom    3 type  1   force =     0.00000000    0.00000000    0.00014441
     atom    4 type  1   force =     0.00000000    0.00000000    0.00014441
     The non-local contrib.  to forces
     atom    1 type  1   force =    -0.00000000   -0.00000000   -0.00051663
     atom    2 type  1   force =    -0.00000000    0.00000000   -0.00051663
     atom    3 type  1   force =     0.00000000    0.00000000    0.00052014
     atom    4 type  1   force =     0.00000000    0.00000000    0.00052014
     The ionic contribution  to forces
     atom    1 type  1   force =     0.00000851   -0.00000491  -11.31618824
     atom    2 type  1   force =    -0.00000851    0.00000491  -11.31618824
     atom    3 type  1   force =     0.00000851   -0.00000491   11.31618824
     atom    4 type  1   force =    -0.00000851    0.00000491   11.31618824
     The local contribution  to forces
     atom    1 type  1   force =    -0.00000000    0.00000000   11.31671806
     atom    2 type  1   force =    -0.00000679    0.00000392   11.31671805
     atom    3 type  1   force =    -0.00000000    0.00000000  -11.31672051
     atom    4 type  1   force =    -0.00000679    0.00000392  -11.31672050
     The core correction contribution to forces
     atom    1 type  1   force =    -0.00000000    0.00000000   -0.00003337
     atom    2 type  1   force =     0.00000053   -0.00000031   -0.00003337
     atom    3 type  1   force =    -0.00000000    0.00000000    0.00003325
     atom    4 type  1   force =     0.00000053   -0.00000031    0.00003325
     The Hubbard contrib.    to forces
     atom    1 type  1   force =     0.00000000    0.00000000    0.00000000
     atom    2 type  1   force =     0.00000000    0.00000000    0.00000000
     atom    3 type  1   force =     0.00000000    0.00000000    0.00000000
     atom    4 type  1   force =     0.00000000    0.00000000    0.00000000
     The SCF correction term to forces
     atom    1 type  1   force =    -0.00000000    0.00000000   -0.00000000
     atom    2 type  1   force =     0.00000000   -0.00000000   -0.00000000
     atom    3 type  1   force =    -0.00000000    0.00000000    0.00012470
     atom    4 type  1   force =     0.00000000   -0.00000000    0.00012470

     Total force =     0.000204     Total SCF correction =     0.000176
     SCF correction compared to forces is large: reduce conv_thr to get better values


     Computing stress (Cartesian axis) and pressure



     -----------------------------------------------
     Non-local corr. energy    =       0.19634713 Ry
     -----------------------------------------------

          total   stress  (Ry/bohr**3)                   (kbar)     P=        0.01
  -0.00000147  -0.00000000  -0.00000000           -0.22       -0.00       -0.00
  -0.00000000  -0.00000147  -0.00000000           -0.00       -0.22       -0.00
  -0.00000000  -0.00000000   0.00000315           -0.00       -0.00        0.46

     kinetic stress (kbar)   6032.65     -0.00     -0.00
                               -0.00   6032.65     -0.00
                               -0.00     -0.00   6642.00

     local   stress (kbar) -84004.99      0.01     -0.00
                                0.01 -84004.99      0.00
                               -0.00      0.00  85796.80

     nonloc. stress (kbar)   -613.83      0.00      0.00
                                0.00   -613.83      0.00
                                0.00      0.00   -513.14

     hartree stress (kbar)  39816.96     -0.00     -0.00
                               -0.00  39816.96     -0.00
                               -0.00     -0.00 -39350.66

     exc-cor stress (kbar)   -479.87     -0.00      0.00
                               -0.00   -479.87     -0.00
                                0.00     -0.00   -559.98

     corecor stress (kbar)   -915.06      0.00     -0.00
                                0.00   -915.06      0.00
                               -0.00      0.00   -890.02

     ewald   stress (kbar)  40159.83     -0.01     -0.00
                               -0.01  40159.82     -0.00
                               -0.00     -0.00 -51167.02

     hubbard stress (kbar)      0.00      0.00      0.00
                                0.00      0.00      0.00
                                0.00      0.00      0.00

     DFT-D   stress (kbar)      0.00      0.00      0.00
                                0.00      0.00      0.00
                                0.00      0.00      0.00

     XDM     stress (kbar)      0.00      0.00      0.00
                                0.00      0.00      0.00
                                0.00      0.00      0.00

     dft-nl  stress (kbar)      4.10      0.00      0.00
                                0.00      4.10     -0.00
                                0.00     -0.00     42.49

     TS-vdW  stress (kbar)      0.00      0.00      0.00
                                0.00      0.00      0.00
                                0.00      0.00      0.00

     MDB     stress (kbar)      0.00      0.00      0.00
                                0.00      0.00      0.00
                                0.00      0.00      0.00

     3D-RISM stress (kbar)      0.00      0.00      0.00
                                0.00      0.00      0.00
                                0.00      0.00      0.00

     Energy error            =      3.6E-07 Ry
     Gradient error          =      1.4E-04 Ry/Bohr
     Cell gradient error     =      4.6E-01 kbar

     bfgs converged in   3 scf cycles and   2 bfgs steps
     (criteria: energy <  1.0E-04 Ry, force <  1.0E-03 Ry/Bohr, cell <  5.0E-01 kbar)

     End of BFGS Geometry Optimization

     Final enthalpy           =     -48.2549809735 Ry

     File ./tmp/C2L_AA_PBE_vdW.bfgs deleted, as requested
Begin final coordinates
     new unit-cell volume =    527.51791 a.u.^3 (    78.17009 Ang^3 )
     density =      1.02058 g/cm^3

CELL_PARAMETERS (alat=  4.66447000)
   1.000143925   0.000000000  -0.000000000
  -0.500071963   0.866150047  -0.000000000
   0.000000000   0.000000000   6.000323503

ATOMIC_POSITIONS (crystal)
C             0.0000000000        0.0000000000        0.0000000000    0   0   0
C             0.6666670000        0.3333330000        0.0000000000    0   0   0
C            -0.0000000000        0.0000000000        0.2348291506
C             0.6666670000        0.3333330000        0.2348291506
End final coordinates



     Writing config-only to output data dir ./tmp/C2L_AA_PBE_vdW.save/

     Final scf calculation at the relaxed structure.
     The G-vectors are recalculated for the final unit cell
     Results may differ from those at the preceding step.

     G-vector sticks info
     --------------------
     sticks:   dense  smooth     PW     G-vecs:    dense   smooth      PW
     Sum         721     721    211                93627    93627   14835

     Using Slab Decomposition



     bravais-lattice index     =            4
     lattice parameter (alat)  =       4.6645  a.u.
     unit-cell volume          =     527.5179 (a.u.)^3
     number of atoms/cell      =            4
     number of atomic types    =            1
     number of electrons       =        16.00
     number of Kohn-Sham states=           12
     kinetic-energy cutoff     =     120.0000  Ry
     charge density cutoff     =     480.0000  Ry
     scf convergence threshold =      1.0E-08
     mixing beta               =       0.7000
     number of iterations used =            8  plain     mixing
     press convergence thresh. =      5.0E-01
     Exchange-correlation= VDW-DF2-B86R
                           (   1   4  26   0   2   0   0)

     celldm(1)=   4.664470  celldm(2)=   0.000000  celldm(3)=   6.000000
     celldm(4)=   0.000000  celldm(5)=   0.000000  celldm(6)=   0.000000

     crystal axes: (cart. coord. in units of alat)
               a(1) = (   1.000144   0.000000  -0.000000 )  
               a(2) = (  -0.500072   0.866150  -0.000000 )  
               a(3) = (   0.000000   0.000000   6.000324 )  

     reciprocal axes: (cart. coord. in units 2 pi/alat)
               b(1) = (  0.999856  0.577267 -0.000000 )  
               b(2) = ( -0.000000  1.154534 -0.000000 )  
               b(3) = (  0.000000  0.000000  0.166658 )  


     PseudoPot. # 1 for C  read from file:
     ../../../../Pseudo/PBE/C.upf
     MD5 check sum: 34a24e64c0a39f27c6c36b90a16ac686
     Pseudo is Norm-conserving + core correction, Zval =  4.0
     Generated using ONCVPSP code by D. R. Hamann
     Using radial grid of 1248 points,  4 beta functions with: 
                l(1) =   0
                l(2) =   0
                l(3) =   1
                l(4) =   1

     atomic species   valence    mass     pseudopotential
        C              4.00    12.01100     C ( 1.00)

     12 Sym. Ops. (no inversion) found ( 6 have fractional translation)


                                    s                        frac. trans.

      isym =  1     identity                                     

 cryst.   s( 1) = (     1          0          0      )
                  (     0          1          0      )
                  (     0          0          1      )

 cart.    s( 1) = (  1.0000000  0.0000000  0.0000000 )
                  (  0.0000000  1.0000000  0.0000000 )
                  (  0.0000000  0.0000000  1.0000000 )


      isym =  2     180 deg rotation - cart. axis [0,0,1]        

 cryst.   s( 2) = (    -1          0          0      )    f =(  0.3333330 )
                  (     0         -1          0      )       ( -0.3333330 )
                  (     0          0          1      )       (  0.0000000 )

 cart.    s( 2) = ( -1.0000000  0.0000000  0.0000000 )    f =(  0.5000715 )
                  (  0.0000000 -1.0000000  0.0000000 )       ( -0.2887164 )
                  (  0.0000000  0.0000000  1.0000000 )       (  0.0000000 )


      isym =  3      60 deg rotation - cryst. axis [0,0,1]       

 cryst.   s( 3) = (     1          1          0      )    f =(  0.3333340 )
                  (    -1          0          0      )       ( -0.3333330 )
                  (     0          0          1      )       (  0.0000000 )

 cart.    s( 3) = (  0.5000000 -0.8660254  0.0000000 )    f =(  0.5000725 )
[...]

     iteration #  3     ecut=   120.00 Ry     beta= 0.70
     Davidson diagonalization with overlap

---- Real-time Memory Report at c_bands before calling an iterative solver
             0 MiB given to the printing process from OS
             0 MiB allocation reported by mallinfo(arena+hblkhd)
             0 MiB available memory on the node where the printing process lives
------------------
     ethr =  3.50E-05,  avg # of iterations =  7.6


     -----------------------------------------------
     Non-local corr. energy    =       0.19617308 Ry
     -----------------------------------------------


     total cpu time spent up to now is      206.0 secs

     total energy              =     -48.25463452 Ry
     estimated scf accuracy    <       0.00101589 Ry

     iteration #  4     ecut=   120.00 Ry     beta= 0.70
     Davidson diagonalization with overlap

---- Real-time Memory Report at c_bands before calling an iterative solver
             0 MiB given to the printing process from OS
             0 MiB allocation reported by mallinfo(arena+hblkhd)
             0 MiB available memory on the node where the printing process lives
------------------
     ethr =  6.35E-06,  avg # of iterations =  4.4


     -----------------------------------------------
     Non-local corr. energy    =       0.19625082 Ry
     -----------------------------------------------


     total cpu time spent up to now is      210.0 secs

     total energy              =     -48.25482663 Ry
     estimated scf accuracy    <       0.00079272 Ry

     iteration #  5     ecut=   120.00 Ry     beta= 0.70
     Davidson diagonalization with overlap

---- Real-time Memory Report at c_bands before calling an iterative solver
             0 MiB given to the printing process from OS
             0 MiB allocation reported by mallinfo(arena+hblkhd)
             0 MiB available memory on the node where the printing process lives
------------------
     ethr =  4.95E-06,  avg # of iterations =  3.0


     -----------------------------------------------
     Non-local corr. energy    =       0.19634868 Ry
     -----------------------------------------------


     total cpu time spent up to now is      213.7 secs

     total energy              =     -48.25497880 Ry
     estimated scf accuracy    <       0.00000288 Ry

     iteration #  6     ecut=   120.00 Ry     beta= 0.70
     Davidson diagonalization with overlap

---- Real-time Memory Report at c_bands before calling an iterative solver
             0 MiB given to the printing process from OS
             0 MiB allocation reported by mallinfo(arena+hblkhd)
             0 MiB available memory on the node where the printing process lives
------------------
     ethr =  1.80E-08,  avg # of iterations =  3.7


     -----------------------------------------------
     Non-local corr. energy    =       0.19634690 Ry
     -----------------------------------------------


     total cpu time spent up to now is      217.9 secs

     total energy              =     -48.25498096 Ry
     estimated scf accuracy    <       0.00000023 Ry

     iteration #  7     ecut=   120.00 Ry     beta= 0.70
     Davidson diagonalization with overlap

---- Real-time Memory Report at c_bands before calling an iterative solver
             0 MiB given to the printing process from OS
             0 MiB allocation reported by mallinfo(arena+hblkhd)
             0 MiB available memory on the node where the printing process lives
------------------
     ethr =  1.44E-09,  avg # of iterations =  2.7


     -----------------------------------------------
     Non-local corr. energy    =       0.19634517 Ry
     -----------------------------------------------


     total cpu time spent up to now is      221.3 secs

     total energy              =     -48.25498098 Ry
     estimated scf accuracy    <       0.00000011 Ry

     iteration #  8     ecut=   120.00 Ry     beta= 0.70
     Davidson diagonalization with overlap

---- Real-time Memory Report at c_bands before calling an iterative solver
             0 MiB given to the printing process from OS
             0 MiB allocation reported by mallinfo(arena+hblkhd)
             0 MiB available memory on the node where the printing process lives
------------------
     ethr =  6.91E-10,  avg # of iterations =  2.0


     -----------------------------------------------
     Non-local corr. energy    =       0.19634752 Ry
     -----------------------------------------------


     total cpu time spent up to now is      224.3 secs

     End of self-consistent calculation

          k = 0.0000 0.0000 0.0000 ( 11695 PWs)   bands (ev):

   -18.8163 -18.6980  -7.3194  -6.4702  -2.3500  -2.3499  -2.3371  -2.3371
     3.7658   4.3899   5.8397   7.8078

     occupation numbers 
     1.0000   1.0000   1.0000   1.0000   1.0000   1.0000   1.0000   1.0000
     0.0000   0.0000   0.0000   0.0000

          k =-0.0000 0.0962-0.0000 ( 11666 PWs)   bands (ev):

   -18.6524 -18.5353  -7.1210  -6.2769  -2.9992  -2.9819  -2.6868  -2.6728
     3.9859   4.6106   6.0564   8.0081

     occupation numbers 
     1.0000   1.0000   1.0000   1.0000   1.0000   1.0000   1.0000   1.0000
     0.0000   0.0000   0.0000   0.0000

          k =-0.0000 0.1924-0.0000 ( 11654 PWs)   bands (ev):

   -18.1623 -18.0488  -6.5308  -5.7024  -4.6344  -4.6066  -3.4766  -3.4605
     4.6459   5.2714   6.7050   8.5898

     occupation numbers 
     1.0000   1.0000   1.0000   1.0000   1.0000   1.0000   1.0000   1.0000
     0.0000   0.0000   0.0000   0.0000

          k =-0.0000 0.2886-0.0000 ( 11698 PWs)   bands (ev):

   -17.3520 -17.2443  -6.7308  -6.6906  -5.5669  -4.7670  -4.3550  -4.3370
     5.7427   6.3590   7.6314   7.8702

     occupation numbers 
     1.0000   1.0000   1.0000   1.0000   1.0000   1.0000   1.0000   1.0000
     0.0000   0.0000   0.0000   0.0000

          k =-0.0000 0.3848-0.0000 ( 11714 PWs)   bands (ev):

   -16.2337 -16.1337  -8.9325  -8.8796  -5.0881  -5.0689  -4.2770  -3.5232
     5.3503   5.8875   7.2658   7.9313

     occupation numbers 
     1.0000   1.0000   1.0000   1.0000   1.0000   1.0000   1.0000   1.0000
     0.0000   0.0000   0.0000   0.0000

          k =-0.0000 0.4811-0.0000 ( 11752 PWs)   bands (ev):

   -14.8393 -14.7481 -11.0307 -10.9659  -5.5610  -5.5412  -2.8186  -2.1382
     3.1503   3.8297   8.1683   8.3325

     occupation numbers 
     1.0000   1.0000   1.0000   1.0000   1.0000   1.0000   1.0000   1.0000
     0.0000   0.0000   0.0000   0.0000

          k = 0.0000-0.5773 0.0000 ( 11698 PWs)   bands (ev):

   -13.5833 -13.4971 -12.5292 -12.4584  -5.7234  -5.7034  -1.9374  -1.3289
     2.0064   2.7792   8.0907   8.2506

     occupation numbers 
     1.0000   1.0000   1.0000   1.0000   1.0000   1.0000   1.0000   1.0000
     0.0000   0.0000   0.0000   0.0000

          k = 0.0833 0.1443-0.0000 ( 11674 PWs)   bands (ev):

   -18.3254 -18.2107  -6.7266  -5.8929  -4.0321  -4.0086  -3.3610  -3.3439
     4.4262   5.0516   6.4899   8.4073

     occupation numbers 
     1.0000   1.0000   1.0000   1.0000   1.0000   1.0000   1.0000   1.0000
     0.0000   0.0000   0.0000   0.0000

          k = 0.0833 0.2405-0.0000 ( 11677 PWs)   bands (ev):

   -17.6752 -17.5652  -5.9486  -5.7403  -5.7068  -5.1367  -4.3564  -4.3352
     5.3057   5.9298   7.3519   8.6028

     occupation numbers 
     1.0000   1.0000   1.0000   1.0000   1.0000   1.0000   1.0000   1.0000
     0.0000   0.0000   0.0000   0.0000

          k = 0.0833 0.3367-0.0000 ( 11720 PWs)   bands (ev):

   -16.7108 -16.6075  -7.8114  -7.7655  -5.2421  -5.2185  -4.8154  -4.0402
     6.4069   6.6229   6.8222   7.3070

     occupation numbers 
     1.0000   1.0000   1.0000   1.0000   1.0000   1.0000   1.0000   1.0000
     0.0000   0.0000   0.0000   0.0000

          k = 0.0833 0.4330-0.0000 ( 11737 PWs)   bands (ev):

   -15.4511 -15.3562  -9.9323  -9.8739  -5.8771  -5.8521  -3.4083  -2.6909
     4.1436   4.7289   8.3414   9.0129

     occupation numbers 
     1.0000   1.0000   1.0000   1.0000   1.0000   1.0000   1.0000   1.0000
     0.0000   0.0000   0.0000   0.0000

          k = 0.0833 0.5292-0.0000 ( 11726 PWs)   bands (ev):

   -13.9749 -13.8884 -11.8700 -11.8011  -6.2057  -6.1801  -2.0563  -1.4247
     2.3139   3.0261   8.8148   8.9877

     occupation numbers 
     1.0000   1.0000   1.0000   1.0000   1.0000   1.0000   1.0000   1.0000
     0.0000   0.0000   0.0000   0.0000

          k = 0.1666 0.2886-0.0000 ( 11724 PWs)   bands (ev):

   -16.8709 -16.7665  -7.0726  -7.0321  -5.7133  -5.6837  -4.9974  -4.2153
     6.4021   6.8880   7.0211   7.2858

     occupation numbers 
     1.0000   1.0000   1.0000   1.0000   1.0000   1.0000   1.0000   1.0000
     0.0000   0.0000   0.0000   0.0000

          k = 0.1666 0.3848-0.0000 ( 11711 PWs)   bands (ev):

   -15.7635 -15.6667  -8.7982  -8.7473  -6.7688  -6.7343  -3.7227  -2.9866
     4.9079   5.3854   7.9243   8.5306

     occupation numbers 
     1.0000   1.0000   1.0000   1.0000   1.0000   1.0000   1.0000   1.0000
     0.0000   0.0000   0.0000   0.0000

          k = 0.1666 0.4811-0.0000 ( 11722 PWs)   bands (ev):

   -14.3892 -14.3011 -10.7056 -10.6431  -7.3458  -7.3092  -2.2623  -1.5956
     2.9474   3.5289   9.8400  10.6763

     occupation numbers 
     1.0000   1.0000   1.0000   1.0000   1.0000   1.0000   1.0000   1.0000
     0.0000   0.0000   0.0000   0.0000

          k = 0.1666 0.5773-0.0000 ( 11724 PWs)   bands (ev):

   -13.1618 -13.0793 -12.1329 -12.0638  -7.5311  -7.4939  -1.3352  -0.7364
     1.8381   2.5024  10.5561  10.8029

     occupation numbers 
     1.0000   1.0000   1.0000   1.0000   1.0000   1.0000   1.0000   1.0000
     0.0000   0.0000   0.0000   0.0000

          k = 0.2500 0.4330-0.0000 ( 11734 PWs)   bands (ev):

   -14.5364 -14.4477  -9.8371  -9.7798  -8.2459  -8.2022  -2.3535  -1.6728
     3.2859   3.7906   9.6324  10.1592

     occupation numbers 
     1.0000   1.0000   1.0000   1.0000   1.0000   1.0000   1.0000   1.0000
     0.0000   0.0000   0.0000   0.0000

          k = 0.2500 0.5292-0.0000 ( 11719 PWs)   bands (ev):

   -13.1173 -13.0372 -11.2545 -11.1884  -8.9537  -8.9063  -0.9329  -0.3233
     1.7400   2.3016  10.7558  11.6511

     occupation numbers 
     1.0000   1.0000   1.0000   1.0000   1.0000   1.0000   1.0000   1.0000
     0.0000   0.0000   0.0000   0.0000

          k = 0.3333 0.5773-0.0000 ( 11694 PWs)   bands (ev):

   -11.9032 -11.9031 -11.8311 -11.8310  -9.8401  -9.7887   0.4429   0.4429
     1.0098   1.0098  10.3172  12.0539

     occupation numbers 
     1.0000   1.0000   1.0000   1.0000   1.0000   1.0000   1.0000   1.0000
     0.0000   0.0000   0.0000   0.0000

     the Fermi energy is     0.7597 ev

!    total energy              =     -48.25498100 Ry
     estimated scf accuracy    <          4.1E-09 Ry
     smearing contrib. (-TS)   =       0.00000000 Ry
     internal energy E=F+TS    =     -48.25498100 Ry

     The total energy is F=E-TS. E is the sum of the following terms:
     one-electron contribution =    -280.04144020 Ry
     hartree contribution      =     144.45476186 Ry
     xc contribution           =     -17.20946429 Ry
     ewald contribution        =     104.54116163 Ry

     convergence has been achieved in   8 iterations


     -----------------------------------------------
     Non-local corr. energy    =       0.19634752 Ry
     -----------------------------------------------


     Forces acting on atoms (cartesian axes, Ry/au):

     atom    1 type  1   force =     0.00000000   -0.00000000   -0.00015085
     atom    2 type  1   force =    -0.00000000    0.00000000   -0.00015085
     atom    3 type  1   force =     0.00000000    0.00000000    0.00015085
     atom    4 type  1   force =     0.00000000    0.00000000    0.00015085
     The non-local contrib.  to forces
     atom    1 type  1   force =    -0.00000000    0.00000000   -0.00051486
     atom    2 type  1   force =    -0.00000000   -0.00000000   -0.00051486
     atom    3 type  1   force =     0.00000000    0.00000000    0.00050779
     atom    4 type  1   force =     0.00000000   -0.00000000    0.00050779
     The ionic contribution  to forces
     atom    1 type  1   force =     0.00000851   -0.00000491  -11.31618824
     atom    2 type  1   force =    -0.00000851    0.00000491  -11.31618824
     atom    3 type  1   force =     0.00000851   -0.00000491   11.31618824
     atom    4 type  1   force =    -0.00000851    0.00000491   11.31618824
     The local contribution  to forces
     atom    1 type  1   force =    -0.00000000    0.00000000   11.31647447
     atom    2 type  1   force =    -0.00000679    0.00000392   11.31647447
     atom    3 type  1   force =    -0.00000000    0.00000000  -11.31644419
     atom    4 type  1   force =    -0.00000679    0.00000392  -11.31644419
     The core correction contribution to forces
     atom    1 type  1   force =    -0.00000000    0.00000000   -0.00003533
     atom    2 type  1   force =     0.00000053   -0.00000031   -0.00003533
     atom    3 type  1   force =    -0.00000000    0.00000000    0.00003555
     atom    4 type  1   force =     0.00000053   -0.00000031    0.00003555
     The Hubbard contrib.    to forces
     atom    1 type  1   force =     0.00000000    0.00000000    0.00000000
     atom    2 type  1   force =     0.00000000    0.00000000    0.00000000
     atom    3 type  1   force =     0.00000000    0.00000000    0.00000000
     atom    4 type  1   force =     0.00000000    0.00000000    0.00000000
     The SCF correction term to forces
     atom    1 type  1   force =    -0.00000000    0.00000000    0.00000000
     atom    2 type  1   force =     0.00000000   -0.00000000    0.00000000
     atom    3 type  1   force =    -0.00000000    0.00000000   -0.00014081
     atom    4 type  1   force =     0.00000000   -0.00000000   -0.00014081

     Total force =     0.000213     Total SCF correction =     0.000199
     SCF correction compared to forces is large: reduce conv_thr to get better values


     Computing stress (Cartesian axis) and pressure



     -----------------------------------------------
     Non-local corr. energy    =       0.19634752 Ry
     -----------------------------------------------

          total   stress  (Ry/bohr**3)                   (kbar)     P=        0.01
  -0.00000149   0.00000000  -0.00000000           -0.22        0.00       -0.00
   0.00000000  -0.00000149  -0.00000000            0.00       -0.22       -0.00
  -0.00000000  -0.00000000   0.00000319           -0.00       -0.00        0.47

     kinetic stress (kbar)   6032.64      0.00     -0.00
                                0.00   6032.64     -0.00
                               -0.00      0.00   6642.00

     local   stress (kbar) -84004.78      0.01      0.00
                                0.01 -84004.77     -0.00
                                0.00     -0.00  85796.58

     nonloc. stress (kbar)   -613.83     -0.00      0.00
                               -0.00   -613.83     -0.00
                                0.00     -0.00   -513.13

     hartree stress (kbar)  39816.75     -0.00      0.00
                               -0.00  39816.75      0.00
                                0.00      0.00 -39350.44

     exc-cor stress (kbar)   -479.87     -0.00     -0.00
                               -0.00   -479.87      0.00
                               -0.00      0.00   -559.98

     corecor stress (kbar)   -915.06      0.00      0.00
                                0.00   -915.05     -0.00
                                0.00     -0.00   -890.02

     ewald   stress (kbar)  40159.83     -0.01     -0.00
                               -0.01  40159.82     -0.00
                               -0.00     -0.00 -51167.02

     hubbard stress (kbar)      0.00      0.00      0.00
                                0.00      0.00      0.00
                                0.00      0.00      0.00

     DFT-D   stress (kbar)      0.00      0.00      0.00
                                0.00      0.00      0.00
                                0.00      0.00      0.00

     XDM     stress (kbar)      0.00      0.00      0.00
                                0.00      0.00      0.00
                                0.00      0.00      0.00

     dft-nl  stress (kbar)      4.10      0.00     -0.00
                                0.00      4.10      0.00
                               -0.00      0.00     42.49

     TS-vdW  stress (kbar)      0.00      0.00      0.00
                                0.00      0.00      0.00
                                0.00      0.00      0.00

     MDB     stress (kbar)      0.00      0.00      0.00
                                0.00      0.00      0.00
                                0.00      0.00      0.00

     3D-RISM stress (kbar)      0.00      0.00      0.00
                                0.00      0.00      0.00
                                0.00      0.00      0.00


     Writing all to output data dir ./tmp/C2L_AA_PBE_vdW.save/

     init_run     :     68.67s CPU     68.96s WALL (       2 calls)
     electrons    :    122.78s CPU    112.40s WALL (       4 calls)
     update_pot   :      8.44s CPU      8.62s WALL (       2 calls)
     forces       :     10.52s CPU     10.81s WALL (       4 calls)
     stress       :     33.16s CPU     34.87s WALL (       4 calls)

     Called by init_run:
     wfcinit      :      3.06s CPU      2.91s WALL (       2 calls)
     wfcinit:atom :      0.07s CPU      0.07s WALL (      38 calls)
     wfcinit:wfcr :      2.71s CPU      2.56s WALL (      38 calls)
     potinit      :     61.86s CPU     62.27s WALL (       2 calls)
     hinit0       :      3.65s CPU      3.67s WALL (       2 calls)

     Called by electrons:
     c_bands      :     93.07s CPU     80.56s WALL (      30 calls)
     sum_band     :     12.12s CPU     12.21s WALL (      30 calls)
     v_of_rho     :     78.71s CPU     81.02s WALL (      32 calls)
     v_h          :      0.13s CPU      0.13s WALL (      32 calls)
     v_xc         :     83.39s CPU     86.15s WALL (      40 calls)
     mix_rho      :      0.35s CPU      0.56s WALL (      30 calls)
     vdW_kernel   :     58.85s CPU     59.11s WALL (       1 calls)

     Called by c_bands:
     init_us_2    :      2.09s CPU      2.10s WALL (    1330 calls)
     init_us_2:cp :      2.09s CPU      2.10s WALL (    1330 calls)
     cegterg      :     89.53s CPU     76.97s WALL (     570 calls)

     Called by sum_band:
     sum_band:wei :      0.01s CPU      0.01s WALL (      30 calls)
     sum_band:loo :     11.75s CPU     11.83s WALL (      30 calls)
     sum_band:buf :      0.15s CPU      0.15s WALL (     570 calls)
     sum_band:ini :      0.89s CPU      0.90s WALL (     570 calls)

     Called by *egterg:
     cdiaghg      :      0.36s CPU      0.36s WALL (    2424 calls)
     cegterg:over :      4.60s CPU      4.72s WALL (    1930 calls)
     cegterg:upda :      4.10s CPU      1.15s WALL (    1930 calls)
     cegterg:last :      5.44s CPU      1.24s WALL (    1298 calls)
     h_psi        :     75.35s CPU     69.64s WALL (    2538 calls)
     g_psi        :      0.57s CPU      0.58s WALL (    1930 calls)

     Called by h_psi:
     h_psi:calbec :      5.21s CPU      5.20s WALL (    2538 calls)
     vloc_psi     :     62.15s CPU     62.53s WALL (    2538 calls)
     add_vuspsi   :      7.63s CPU      1.53s WALL (    2538 calls)

     General routines
     calbec       :      6.29s CPU      6.27s WALL (    2918 calls)
     fft          :      7.15s CPU      7.17s WALL (    2596 calls)
     ffts         :      0.07s CPU      0.07s WALL (      30 calls)
     fftw         :     61.42s CPU     61.71s WALL (   46356 calls)

     Parallel routines

     PWSCF        :   4m 3.66s CPU   3m55.83s WALL


   This run was terminated on:  10:50:46   8Apr2024            

=------------------------------------------------------------------------------=
   JOB DONE.
=------------------------------------------------------------------------------=
