
     Program PWSCF v.7.2 starts on 14Apr2024 at 16: 2:12 

     This program is part of the open-source Quantum ESPRESSO suite
     for quantum simulation of materials; please cite
         "P. Giannozzi et al., J. Phys.:Condens. Matter 21 395502 (2009);
         "P. Giannozzi et al., J. Phys.:Condens. Matter 29 465901 (2017);
         "P. Giannozzi et al., J. Chem. Phys. 152 154105 (2020);
          URL http://www.quantum-espresso.org", 
     in publications or presentations arising from this work. More details at
     http://www.quantum-espresso.org/quote

     Parallel version (MPI & OpenMP), running on       8 processor cores
     Number of MPI processes:                 8
     Threads/MPI process:                     1

     MPI processes distributed on     1 nodes
     0 MiB available memory on the printing compute node when the environment starts

     Waiting for input...
     Reading input from standard input

     Current dimensions of program PWSCF are:
     Max number of different atomic species (ntypx) = 10
     Max number of k-points (npk) =  40000
     Max angular momentum in pseudopotentials (lmaxx) =  4

     IMPORTANT: XC functional enforced from input :
     Exchange-correlation= VDW-DF2-B86R
                           (   1   4  26   0   2   0   0)
     Any further DFT definition will be discarded
     Please, verify this is what you really want


     R & G space division:  proc/nbgrp/npool/nimage =       8
     Subspace diagonalization in iterative solution of the eigenvalue problem:
     a serial algorithm will be used


     Parallelization info
     --------------------
     sticks:   dense  smooth     PW     G-vecs:    dense   smooth      PW
     Min          90      90     26                15598    15598    2466
     Max          91      91     28                15621    15621    2484
     Sum         721     721    211               124833   124833   19791

     Using Slab Decomposition



     bravais-lattice index     =            4
     lattice parameter (alat)  =       4.6645  a.u.
     unit-cell volume          =     703.1169 (a.u.)^3
     number of atoms/cell      =            4
     number of atomic types    =            1
     number of electrons       =        16.00
     number of Kohn-Sham states=           12
     kinetic-energy cutoff     =     120.0000  Ry
     charge density cutoff     =     480.0000  Ry
     scf convergence threshold =      1.0E-06
     mixing beta               =       0.7000
     number of iterations used =            8  plain     mixing
     energy convergence thresh.=      1.0E-04
     force convergence thresh. =      1.0E-03
     press convergence thresh. =      5.0E-01
     Exchange-correlation= VDW-DF2-B86R
                           (   1   4  26   0   2   0   0)
     nstep                     =           50


     celldm(1)=   4.664470  celldm(2)=   0.000000  celldm(3)=   8.000000
     celldm(4)=   0.000000  celldm(5)=   0.000000  celldm(6)=   0.000000

     crystal axes: (cart. coord. in units of alat)
               a(1) = (   1.000000   0.000000   0.000000 )  
               a(2) = (  -0.500000   0.866025   0.000000 )  
               a(3) = (   0.000000   0.000000   8.000000 )  

     reciprocal axes: (cart. coord. in units 2 pi/alat)
               b(1) = (  1.000000  0.577350 -0.000000 )  
               b(2) = (  0.000000  1.154701  0.000000 )  
               b(3) = (  0.000000 -0.000000  0.125000 )  


     PseudoPot. # 1 for C  read from file:
     ../../../../Pseudo/PBE/C.upf
     MD5 check sum: 34a24e64c0a39f27c6c36b90a16ac686
     Pseudo is Norm-conserving + core correction, Zval =  4.0
     Generated using ONCVPSP code by D. R. Hamann
     Using radial grid of 1248 points,  4 beta functions with: 
                l(1) =   0
                l(2) =   0
                l(3) =   1
                l(4) =   1

     atomic species   valence    mass     pseudopotential
        C              4.00    12.01100     C ( 1.00)

     12 Sym. Ops. (no inversion) found ( 6 have fractional translation)


                                    s                        frac. trans.

      isym =  1     identity                                     

 cryst.   s( 1) = (     1          0          0      )
                  (     0          1          0      )
                  (     0          0          1      )

 cart.    s( 1) = (  1.0000000  0.0000000  0.0000000 )
                  (  0.0000000  1.0000000  0.0000000 )
                  (  0.0000000  0.0000000  1.0000000 )


      isym =  2     180 deg rotation - cart. axis [0,0,1]        

 cryst.   s( 2) = (    -1          0          0      )    f =(  0.3333330 )
                  (     0         -1          0      )       ( -0.3333330 )
                  (     0          0          1      )       (  0.0000000 )

 cart.    s( 2) = ( -1.0000000  0.0000000  0.0000000 )    f =(  0.4999995 )
                  (  0.0000000 -1.0000000  0.0000000 )       ( -0.2886748 )
                  (  0.0000000  0.0000000  1.0000000 )       (  0.0000000 )


      isym =  3      60 deg rotation - cryst. axis [0,0,1]       

 cryst.   s( 3) = (     1          1          0      )    f =(  0.3333340 )
                  (    -1          0          0      )       ( -0.3333330 )
                  (     0          0          1      )       (  0.0000000 )

 cart.    s( 3) = (  0.5000000 -0.8660254  0.0000000 )    f =(  0.5000005 )
                  (  0.8660254  0.5000000  0.0000000 )       ( -0.2886748 )
                  (  0.0000000  0.0000000  1.0000000 )       (  0.0000000 )


      isym =  4      60 deg rotation - cryst. axis [0,0,-1]      

 cryst.   s( 4) = (     0         -1          0      )    f =(  0.3333330 )
                  (     1          1          0      )       ( -0.3333340 )
                  (     0          0          1      )       (  0.0000000 )

 cart.    s( 4) = (  0.5000000  0.8660254  0.0000000 )    f =(  0.5000000 )
                  ( -0.8660254  0.5000000  0.0000000 )       ( -0.2886757 )
                  (  0.0000000  0.0000000  1.0000000 )       (  0.0000000 )


      isym =  5     120 deg rotation - cryst. axis [0,0,1]       

 cryst.   s( 5) = (     0          1          0      )
                  (    -1         -1          0      )
                  (     0          0          1      )

 cart.    s( 5) = ( -0.5000000 -0.8660254  0.0000000 )
                  (  0.8660254 -0.5000000  0.0000000 )
                  (  0.0000000  0.0000000  1.0000000 )


      isym =  6     120 deg rotation - cryst. axis [0,0,-1]      

 cryst.   s( 6) = (    -1         -1          0      )
                  (     1          0          0      )
                  (     0          0          1      )

 cart.    s( 6) = ( -0.5000000  0.8660254  0.0000000 )
                  ( -0.8660254 -0.5000000  0.0000000 )
                  (  0.0000000  0.0000000  1.0000000 )


      isym =  7     inv. 180 deg rotation - cart. axis [0,1,0]   

 cryst.   s( 7) = (     1          0          0      )    f =(  0.3333340 )
                  (    -1         -1          0      )       ( -0.3333330 )
                  (     0          0          1      )       (  0.0000000 )

 cart.    s( 7) = (  1.0000000  0.0000000  0.0000000 )    f =(  0.5000005 )
                  (  0.0000000 -1.0000000  0.0000000 )       ( -0.2886748 )
                  (  0.0000000  0.0000000  1.0000000 )       (  0.0000000 )


      isym =  8     inv. 180 deg rotation - cart. axis [1,0,0]   

 cryst.   s( 8) = (    -1          0          0      )
                  (     1          1          0      )
                  (     0          0          1      )

 cart.    s( 8) = ( -1.0000000  0.0000000  0.0000000 )
                  (  0.0000000  1.0000000  0.0000000 )
                  (  0.0000000  0.0000000  1.0000000 )


      isym =  9     inv. 180 deg rotation - cryst. axis [1,-1,0] 

 cryst.   s( 9) = (     0          1          0      )    f =(  0.3333330 )
                  (     1          0          0      )       ( -0.3333330 )
                  (     0          0          1      )       (  0.0000000 )

 cart.    s( 9) = ( -0.5000000  0.8660254  0.0000000 )    f =(  0.4999995 )
                  (  0.8660254  0.5000000  0.0000000 )       ( -0.2886748 )
                  (  0.0000000  0.0000000  1.0000000 )       (  0.0000000 )


      isym = 10     inv. 180 deg rotation - cryst. axis [2,1,0]  

 cryst.   s(10) = (    -1         -1          0      )    f =(  0.3333330 )
                  (     0          1          0      )       ( -0.3333340 )
                  (     0          0          1      )       (  0.0000000 )

 cart.    s(10) = ( -0.5000000 -0.8660254  0.0000000 )    f =(  0.5000000 )
                  ( -0.8660254  0.5000000  0.0000000 )       ( -0.2886757 )
                  (  0.0000000  0.0000000  1.0000000 )       (  0.0000000 )


      isym = 11     inv. 180 deg rotation - cryst. axis [0,1,0]  

 cryst.   s(11) = (     1          1          0      )
                  (     0         -1          0      )
                  (     0          0          1      )

 cart.    s(11) = (  0.5000000  0.8660254  0.0000000 )
                  (  0.8660254 -0.5000000  0.0000000 )
                  (  0.0000000  0.0000000  1.0000000 )


      isym = 12     inv. 180 deg rotation - cryst. axis [1,1,0]  

 cryst.   s(12) = (     0         -1          0      )
                  (    -1          0          0      )
                  (     0          0          1      )

 cart.    s(12) = (  0.5000000 -0.8660254  0.0000000 )
                  ( -0.8660254 -0.5000000  0.0000000 )
                  (  0.0000000  0.0000000  1.0000000 )


     point group C_6v (6mm) 
     there are  6 classes
     the character table:

       E     2C6   2C3   C2    3s_v  3s_d 
A_1    1.00  1.00  1.00  1.00  1.00  1.00
A_2    1.00  1.00  1.00  1.00 -1.00 -1.00
B_1    1.00 -1.00  1.00 -1.00  1.00 -1.00
B_2    1.00 -1.00  1.00 -1.00 -1.00  1.00
E_1    2.00  1.00 -1.00 -2.00  0.00  0.00
E_2    2.00 -1.00 -1.00  2.00  0.00  0.00

     the symmetry operations in each class and the name of the first element:

     E        1
          identity                                               
     2C6      3    4
           60 deg rotation - cryst. axis [0,0,1]                 
     2C3      5    6
          120 deg rotation - cryst. axis [0,0,1]                 
     C2       2
          180 deg rotation - cart. axis [0,0,1]                  
     3s_v     8   12   11
          inv. 180 deg rotation - cart. axis [1,0,0]             
     3s_d     7    9   10
          inv. 180 deg rotation - cart. axis [0,1,0]             

   Cartesian axes

     site n.     atom                  positions (alat units)
         1           C   tau(   1) = (   0.0000000   0.0000000   0.0000000  )
         2           C   tau(   2) = (   0.5000005   0.2886748   0.0000000  )
         3           C   tau(   3) = (   0.0000000   0.0000000   1.3401360  )
         4           C   tau(   4) = (   0.5000005   0.2886748   1.3401360  )

   Crystallographic axes

     site n.     atom                  positions (cryst. coord.)
         1           C   tau(   1) = (  0.0000000  0.0000000  0.0000000  )
         2           C   tau(   2) = (  0.6666670  0.3333330  0.0000000  )
         3           C   tau(   3) = (  0.0000000  0.0000000  0.1675170  )
         4           C   tau(   4) = (  0.6666670  0.3333330  0.1675170  )

     number of k points=    19  Marzari-Vanderbilt smearing, width (Ry)=  0.0050
                       cart. coord. in units 2pi/alat
        k(    1) = (   0.0000000   0.0000000   0.0000000), wk =   0.0138889
        k(    2) = (   0.0000000   0.0962250   0.0000000), wk =   0.0833333
        k(    3) = (   0.0000000   0.1924501   0.0000000), wk =   0.0833333
        k(    4) = (   0.0000000   0.2886751   0.0000000), wk =   0.0833333
        k(    5) = (   0.0000000   0.3849002   0.0000000), wk =   0.0833333
        k(    6) = (   0.0000000   0.4811252   0.0000000), wk =   0.0833333
        k(    7) = (   0.0000000  -0.5773503   0.0000000), wk =   0.0416667
        k(    8) = (   0.0833333   0.1443376   0.0000000), wk =   0.0833333
        k(    9) = (   0.0833333   0.2405626   0.0000000), wk =   0.1666667
        k(   10) = (   0.0833333   0.3367877   0.0000000), wk =   0.1666667
        k(   11) = (   0.0833333   0.4330127   0.0000000), wk =   0.1666667
        k(   12) = (   0.0833333   0.5292377   0.0000000), wk =   0.1666667
        k(   13) = (   0.1666667   0.2886751   0.0000000), wk =   0.0833333
        k(   14) = (   0.1666667   0.3849002   0.0000000), wk =   0.1666667
        k(   15) = (   0.1666667   0.4811252   0.0000000), wk =   0.1666667
        k(   16) = (   0.1666667   0.5773503   0.0000000), wk =   0.0833333
        k(   17) = (   0.2500000   0.4330127   0.0000000), wk =   0.0833333
        k(   18) = (   0.2500000   0.5292377   0.0000000), wk =   0.1666667
        k(   19) = (   0.3333333   0.5773503   0.0000000), wk =   0.0277778

                       cryst. coord.
        k(    1) = (   0.0000000   0.0000000   0.0000000), wk =   0.0138889
        k(    2) = (   0.0000000   0.0833333   0.0000000), wk =   0.0833333
        k(    3) = (   0.0000000   0.1666667   0.0000000), wk =   0.0833333
        k(    4) = (   0.0000000   0.2500000   0.0000000), wk =   0.0833333
        k(    5) = (   0.0000000   0.3333333   0.0000000), wk =   0.0833333
        k(    6) = (   0.0000000   0.4166667   0.0000000), wk =   0.0833333
        k(    7) = (   0.0000000  -0.5000000   0.0000000), wk =   0.0416667
        k(    8) = (   0.0833333   0.0833333   0.0000000), wk =   0.0833333
        k(    9) = (   0.0833333   0.1666667   0.0000000), wk =   0.1666667
        k(   10) = (   0.0833333   0.2500000   0.0000000), wk =   0.1666667
        k(   11) = (   0.0833333   0.3333333   0.0000000), wk =   0.1666667
        k(   12) = (   0.0833333   0.4166667   0.0000000), wk =   0.1666667
        k(   13) = (   0.1666667   0.1666667   0.0000000), wk =   0.0833333
        k(   14) = (   0.1666667   0.2500000   0.0000000), wk =   0.1666667
        k(   15) = (   0.1666667   0.3333333   0.0000000), wk =   0.1666667
        k(   16) = (   0.1666667   0.4166667   0.0000000), wk =   0.0833333
        k(   17) = (   0.2500000   0.2500000   0.0000000), wk =   0.0833333
        k(   18) = (   0.2500000   0.3333333   0.0000000), wk =   0.1666667
        k(   19) = (   0.3333333   0.3333333   0.0000000), wk =   0.0277778

     Dense  grid:   124833 G-vectors     FFT dimensions: (  36,  36, 270)

     Dynamical RAM for                 wfc:       0.36 MB

     Dynamical RAM for     wfc (w. buffer):       7.14 MB

     Dynamical RAM for           str. fact:       0.24 MB

     Dynamical RAM for           local pot:       0.00 MB

     Dynamical RAM for          nlocal pot:       0.95 MB

     Dynamical RAM for                qrad:       1.00 MB

     Dynamical RAM for          rho,v,vnew:       1.72 MB

     Dynamical RAM for               rhoin:       0.57 MB

     Dynamical RAM for            rho*nmix:       3.81 MB

     Dynamical RAM for           G-vectors:       1.01 MB

     Dynamical RAM for          h,s,v(r/c):       0.03 MB

     Dynamical RAM for          <psi|beta>:       0.01 MB

     Dynamical RAM for                 psi:       0.71 MB

     Dynamical RAM for                hpsi:       0.71 MB

     Dynamical RAM for      wfcinit/wfcrot:       0.96 MB

     Estimated static dynamical RAM per process >      14.81 MB

     Estimated max dynamical RAM per process >      20.08 MB

     Estimated total dynamical RAM >     160.62 MB

     Initial potential from superposition of free atoms

     starting charge      15.9998, renormalised to      16.0000

     negative rho (up, down):  3.223E-06 0.000E+00


     %%%%%%%%%%%%%%%%%%%%%%%%%%%%%%%%%%%%%%%%%%%%%%%%%%%%%%%%%%%%%%%%%%%%%%%%
     %                                                                      %
     % You are using vdW-DF, which was implemented by the Thonhauser group. %
     % Please cite the following two papers that made this development      %
     % possible and the two reviews that describe the various versions:     %
     %                                                                      %
     %   T. Thonhauser et al., PRL 115, 136402 (2015).                      %
     %   T. Thonhauser et al., PRB 76, 125112 (2007).                       %
     %   K. Berland et al., Rep. Prog. Phys. 78, 066501 (2015).             %
     %   D.C. Langreth et al., J. Phys.: Condens. Matter 21, 084203 (2009). %
     %                                                                      %
     % If you are calculating stress with vdW-DF, please also cite:         %
     %                                                                      %
     %   R. Sabatini et al., J. Phys.: Condens. Matter 24, 424209 (2012).   %
     %                                                                      %
     %%%%%%%%%%%%%%%%%%%%%%%%%%%%%%%%%%%%%%%%%%%%%%%%%%%%%%%%%%%%%%%%%%%%%%%%

     %%%%%%%%%%%%%%%%%%%%%%%%%%%%%%%%%%%%%%%%%%%%%%%%%%%%%%%%%%%%%%%%%%%%%%%%
     %                                                                      %
     %  vdW-DF NEWS:                                                        %
     %                                                                      %
     %  * vdW-DF3 is now available. DOI: 10.1021/acs.jctc.0c00471           %
     %    use with input_dft = 'vdW-DF3-opt1' or 'vdW-DF3-opt2'             %
     %                                                                      %
     %  * Unscreened and range-separated hybrid vdW-DF-cx functionals       %
     %    DOI: 10.1063/1.4986522 and 10.1088/1361-648X/ac2ad2               %
     %    use with input_dft = 'vdW-DF-cx0'    and 'vdW-DF-ahcx'            %
     %  * Unscreened and range-separated hybrid vdW-DF2-b86r functionals    %
     %    DOI: 10.1063/1.4986522 and DOI: 10.1103/PhysRevX.12.041003        %
     %    use with input_dft = 'vdW-DF2-br0' and 'vdW-DF2-ahbr'             %
     %                                                                      %
     %%%%%%%%%%%%%%%%%%%%%%%%%%%%%%%%%%%%%%%%%%%%%%%%%%%%%%%%%%%%%%%%%%%%%%%%


     Carrying out vdW-DF run using the following parameters:
     Nqs    =  20  Npoints =  1024  r_max =  100.000
     q_mesh =  0.00001000  0.04494208  0.09755937  0.15916263
               0.23128650  0.31572767  0.41458969  0.53033537
               0.66584808  0.82450364  1.01025438  1.22772762
               1.48234092  1.78043706  2.12944203  2.53805004
               3.01644009  3.57652955  4.23227104  5.00000000


     -----------------------------------------------
     Non-local corr. energy    =       0.17028457 Ry
     -----------------------------------------------

     Starting wfcs are   16 randomized atomic wfcs

     total cpu time spent up to now is        9.8 secs

     Self-consistent Calculation

     iteration #  1     ecut=   120.00 Ry     beta= 0.70
     Davidson diagonalization with overlap

---- Real-time Memory Report at c_bands before calling an iterative solver
             0 MiB given to the printing process from OS
             0 MiB allocation reported by mallinfo(arena+hblkhd)
             0 MiB available memory on the node where the printing process lives
------------------
     ethr =  1.00E-02,  avg # of iterations =  3.3


     -----------------------------------------------
     Non-local corr. energy    =       0.19380523 Ry
     -----------------------------------------------


     total cpu time spent up to now is       11.2 secs

     total energy              =     -48.21040259 Ry
     estimated scf accuracy    <       0.34677280 Ry

     iteration #  2     ecut=   120.00 Ry     beta= 0.70
     Davidson diagonalization with overlap

---- Real-time Memory Report at c_bands before calling an iterative solver
             0 MiB given to the printing process from OS
             0 MiB allocation reported by mallinfo(arena+hblkhd)
             0 MiB available memory on the node where the printing process lives
------------------
     ethr =  2.17E-03,  avg # of iterations =  4.3


     -----------------------------------------------
     Non-local corr. energy    =       0.19465985 Ry
     -----------------------------------------------


     total cpu time spent up to now is       12.5 secs

     total energy              =     -48.25229098 Ry
     estimated scf accuracy    <       0.00538812 Ry

     iteration #  3     ecut=   120.00 Ry     beta= 0.70
     Davidson diagonalization with overlap

---- Real-time Memory Report at c_bands before calling an iterative solver
             0 MiB given to the printing process from OS
             0 MiB allocation reported by mallinfo(arena+hblkhd)
             0 MiB available memory on the node where the printing process lives
------------------
     c_bands:  1 eigenvalues not converged
     c_bands:  1 eigenvalues not converged
     c_bands:  1 eigenvalues not converged
     ethr =  3.37E-05,  avg # of iterations = 12.6


     -----------------------------------------------
     Non-local corr. energy    =       0.19429716 Ry
     -----------------------------------------------


     total cpu time spent up to now is       14.7 secs

     total energy              =     -48.25377210 Ry
     estimated scf accuracy    <       0.00130985 Ry

     iteration #  4     ecut=   120.00 Ry     beta= 0.70
     Davidson diagonalization with overlap

---- Real-time Memory Report at c_bands before calling an iterative solver
             0 MiB given to the printing process from OS
             0 MiB allocation reported by mallinfo(arena+hblkhd)
             0 MiB available memory on the node where the printing process lives
------------------
     ethr =  8.19E-06,  avg # of iterations =  3.9


     -----------------------------------------------
     Non-local corr. energy    =       0.19421883 Ry
     -----------------------------------------------


     total cpu time spent up to now is       16.0 secs

     total energy              =     -48.25412121 Ry
     estimated scf accuracy    <       0.00059869 Ry

     iteration #  5     ecut=   120.00 Ry     beta= 0.70
     Davidson diagonalization with overlap

---- Real-time Memory Report at c_bands before calling an iterative solver
             0 MiB given to the printing process from OS
             0 MiB allocation reported by mallinfo(arena+hblkhd)
             0 MiB available memory on the node where the printing process lives
------------------
     ethr =  3.74E-06,  avg # of iterations =  3.9


     -----------------------------------------------
     Non-local corr. energy    =       0.19439229 Ry
     -----------------------------------------------


     total cpu time spent up to now is       17.2 secs

     total energy              =     -48.25423368 Ry
     estimated scf accuracy    <       0.00000904 Ry

     iteration #  6     ecut=   120.00 Ry     beta= 0.70
     Davidson diagonalization with overlap

---- Real-time Memory Report at c_bands before calling an iterative solver
             0 MiB given to the printing process from OS
             0 MiB allocation reported by mallinfo(arena+hblkhd)
             0 MiB available memory on the node where the printing process lives
------------------
     ethr =  5.65E-08,  avg # of iterations =  3.0


     -----------------------------------------------
     Non-local corr. energy    =       0.19438980 Ry
     -----------------------------------------------


     total cpu time spent up to now is       18.4 secs

     total energy              =     -48.25423721 Ry
     estimated scf accuracy    <       0.00000131 Ry

     iteration #  7     ecut=   120.00 Ry     beta= 0.70
     Davidson diagonalization with overlap

---- Real-time Memory Report at c_bands before calling an iterative solver
             0 MiB given to the printing process from OS
             0 MiB allocation reported by mallinfo(arena+hblkhd)
             0 MiB available memory on the node where the printing process lives
------------------
     ethr =  8.16E-09,  avg # of iterations =  2.1


     -----------------------------------------------
     Non-local corr. energy    =       0.19436140 Ry
     -----------------------------------------------


     total cpu time spent up to now is       19.4 secs

     End of self-consistent calculation

          k = 0.0000 0.0000 0.0000 ( 15581 PWs)   bands (ev):

   -20.1478 -19.9727  -8.7359  -7.6484  -3.6483  -3.6483  -3.6265  -3.6265
     2.5722   3.0009   4.1545   5.2757

     occupation numbers 
     1.0000   1.0000   1.0000   1.0000   1.0000   1.0000   1.0000   1.0000
     0.0000   0.0000   0.0000   0.0000

          k = 0.0000 0.0962 0.0000 ( 15544 PWs)   bands (ev):

   -19.9835 -19.8102  -8.5372  -7.4556  -4.2992  -4.2705  -3.9857  -3.9622
     2.7921   3.2228   4.3806   5.5004

     occupation numbers 
     1.0000   1.0000   1.0000   1.0000   1.0000   1.0000   1.0000   1.0000
     0.0000   0.0000   0.0000   0.0000

          k = 0.0000 0.1925 0.0000 ( 15550 PWs)   bands (ev):

   -19.4925 -19.3241  -7.9460  -6.8827  -5.9381  -5.8935  -4.7767  -4.7499
     3.4513   3.8872   5.0590   6.1735

     occupation numbers 
     1.0000   1.0000   1.0000   1.0000   1.0000   1.0000   1.0000   1.0000
     0.0000   0.0000   0.0000   0.0000

          k = 0.0000 0.2887 0.0000 ( 15574 PWs)   bands (ev):

   -18.6806 -18.5202  -8.0390  -7.9757  -6.9802  -5.9500  -5.6561  -5.6265
     4.5462   4.9828   6.1827   6.3513

     occupation numbers 
     1.0000   1.0000   1.0000   1.0000   1.0000   1.0000   1.0000   1.0000
     0.0000   0.0000   0.0000   0.0000

          k = 0.0000 0.3849 0.0000 ( 15652 PWs)   bands (ev):

   -17.5602 -17.4105 -10.2450 -10.1631  -6.3899  -6.3585  -5.6874  -4.7105
     3.9666   4.6719   6.0663   6.5655

     occupation numbers 
     1.0000   1.0000   1.0000   1.0000   1.0000   1.0000   1.0000   1.0000
     0.0000   0.0000   0.0000   0.0000

          k = 0.0000 0.4811 0.0000 ( 15630 PWs)   bands (ev):

   -16.1631 -16.0258 -12.3471 -12.2480  -6.8633  -6.8308  -4.2242  -3.3322
     1.7530   2.6290   6.8380   7.0714

     occupation numbers 
     1.0000   1.0000   1.0000   1.0000   1.0000   1.0000   1.0000   1.0000
     0.0000   0.0000   0.0000   0.0000

          k = 0.0000-0.5774 0.0000 ( 15610 PWs)   bands (ev):

   -14.9051 -14.7741 -13.8481 -13.7410  -7.0259  -6.9930  -3.3384  -2.5287
     0.6017   1.5868   6.7584   6.9897

     occupation numbers 
     1.0000   1.0000   1.0000   1.0000   1.0000   1.0000   1.0000   1.0000
     0.0000   0.0000   0.0000   0.0000

          k = 0.0833 0.1443 0.0000 ( 15550 PWs)   bands (ev):

   -19.6559 -19.4858  -8.1422  -7.0726  -5.3344  -5.2962  -4.6613  -4.6331
     3.2319   3.6661   4.8331   5.9496

     occupation numbers 
     1.0000   1.0000   1.0000   1.0000   1.0000   1.0000   1.0000   1.0000
     0.0000   0.0000   0.0000   0.0000

          k = 0.0833 0.2406 0.0000 ( 15563 PWs)   bands (ev):

   -19.0044 -18.8409  -7.3628  -7.0461  -6.9928  -6.3186  -5.6584  -5.6241
     4.1102   4.5495   5.7373   6.8456

     occupation numbers 
     1.0000   1.0000   1.0000   1.0000   1.0000   1.0000   1.0000   1.0000
     0.0000   0.0000   0.0000   0.0000

          k = 0.0833 0.3368 0.0000 ( 15608 PWs)   bands (ev):

   -18.0381 -17.8839  -9.1215  -9.0497  -6.5455  -6.5074  -6.2270  -5.2256
     5.0313   5.4257   5.5782   5.9560

     occupation numbers 
     1.0000   1.0000   1.0000   1.0000   1.0000   1.0000   1.0000   1.0000
     0.0000   0.0000   0.0000   0.0000

          k = 0.0833 0.4330 0.0000 ( 15647 PWs)   bands (ev):

   -16.7761 -16.6336 -11.2466 -11.1567  -7.1810  -7.1409  -4.8162  -3.8816
     2.7532   3.5201   7.1352   7.6930

     occupation numbers 
     1.0000   1.0000   1.0000   1.0000   1.0000   1.0000   1.0000   1.0000
     0.0000   0.0000   0.0000   0.0000

          k = 0.0833 0.5292 0.0000 ( 15642 PWs)   bands (ev):

   -15.2971 -15.1664 -13.1879 -13.0830  -7.5099  -7.4689  -3.4586  -2.6228
     0.9128   1.8291   7.4826   7.7273

     occupation numbers 
     1.0000   1.0000   1.0000   1.0000   1.0000   1.0000   1.0000   1.0000
     0.0000   0.0000   0.0000   0.0000

          k = 0.1667 0.2887 0.0000 ( 15608 PWs)   bands (ev):

   -18.1985 -18.0428  -8.3807  -8.3167  -7.0188  -6.9719  -6.4094  -5.3999
     5.2052   5.5127   5.6474   6.0605

     occupation numbers 
     1.0000   1.0000   1.0000   1.0000   1.0000   1.0000   1.0000   1.0000
     0.0000   0.0000   0.0000   0.0000

          k = 0.1667 0.3849 0.0000 ( 15629 PWs)   bands (ev):

   -17.0891 -16.9439 -10.1099 -10.0305  -8.0760  -8.0219  -5.1318  -4.1757
     3.5238   4.1687   6.7248   7.1683

     occupation numbers 
     1.0000   1.0000   1.0000   1.0000   1.0000   1.0000   1.0000   1.0000
     0.0000   0.0000   0.0000   0.0000

          k = 0.1667 0.4811 0.0000 ( 15632 PWs)   bands (ev):

   -15.7121 -15.5792 -12.0211 -11.9252  -8.6538  -8.5966  -3.6668  -2.7910
     1.5539   2.3221   8.6309   9.3452

     occupation numbers 
     1.0000   1.0000   1.0000   1.0000   1.0000   1.0000   1.0000   1.0000
     0.0000   0.0000   0.0000   0.0000

          k = 0.1667 0.5774 0.0000 ( 15640 PWs)   bands (ev):

   -14.4825 -14.3569 -13.4510 -13.3462  -8.8392  -8.7811  -2.7351  -1.9375
     0.4382   1.3026   9.2140   9.5447

     occupation numbers 
     1.0000   1.0000   1.0000   1.0000   1.0000   1.0000   1.0000   1.0000
     0.0000   0.0000   0.0000   0.0000

          k = 0.2500 0.4330 0.0000 ( 15618 PWs)   bands (ev):

   -15.8596 -15.7257 -11.1506 -11.0616  -9.5565  -9.4893  -3.7588  -2.8671
     1.8968   2.5783   8.4254   8.8182

     occupation numbers 
     1.0000   1.0000   1.0000   1.0000   1.0000   1.0000   1.0000   1.0000
     0.0000   0.0000   0.0000   0.0000

          k = 0.2500 0.5292 0.0000 ( 15609 PWs)   bands (ev):

   -14.4377 -14.3160 -12.5709 -12.4695 -10.2655 -10.1929  -2.3331  -1.5239
     0.3455   1.0950   9.3916  10.4485

     occupation numbers 
     1.0000   1.0000   1.0000   1.0000   1.0000   1.0000   1.0000   1.0000
     0.0000   0.0000   0.0000   0.0000

          k = 0.3333 0.5774 0.0000 ( 15606 PWs)   bands (ev):

   -13.2210 -13.2210 -13.1104 -13.1104 -11.1540 -11.0760  -0.9536  -0.9535
    -0.1950  -0.1950   8.9219  10.8451

     occupation numbers 
     1.0000   1.0000   1.0000   1.0000   1.0000   1.0000   1.0000   1.0000
     0.0000   0.0000   0.0000   0.0000

     the Fermi energy is    -0.6072 ev

!    total energy              =     -48.25423728 Ry
     estimated scf accuracy    <       0.00000027 Ry
     smearing contrib. (-TS)   =       0.00000000 Ry
     internal energy E=F+TS    =     -48.25423728 Ry

     The total energy is F=E-TS. E is the sum of the following terms:
     one-electron contribution =    -529.08113037 Ry
     hartree contribution      =     268.21355989 Ry
     xc contribution           =     -17.21655294 Ry
     ewald contribution        =     229.82988615 Ry

     convergence has been achieved in   7 iterations


     -----------------------------------------------
     Non-local corr. energy    =       0.19436140 Ry
     -----------------------------------------------


     Forces acting on atoms (cartesian axes, Ry/au):

     atom    1 type  1   force =     0.00000000    0.00000000   -0.00195098
     atom    2 type  1   force =     0.00000000    0.00000000   -0.00195098
     atom    3 type  1   force =     0.00000000    0.00000000    0.00195098
     atom    4 type  1   force =     0.00000000    0.00000000    0.00195098
     The non-local contrib.  to forces
     atom    1 type  1   force =    -0.00000000   -0.00000000   -0.00223463
     atom    2 type  1   force =     0.00000000    0.00000000   -0.00223463
     atom    3 type  1   force =    -0.00000000    0.00000000    0.00226061
     atom    4 type  1   force =     0.00000000    0.00000000    0.00226061
     The ionic contribution  to forces
     atom    1 type  1   force =     0.00000852   -0.00000492  -14.19328446
     atom    2 type  1   force =    -0.00000852    0.00000492  -14.19328446
     atom    3 type  1   force =     0.00000852   -0.00000492   14.19328446
     atom    4 type  1   force =    -0.00000852    0.00000492   14.19328446
     The local contribution  to forces
     atom    1 type  1   force =    -0.00000000    0.00000000   14.19381835
     atom    2 type  1   force =    -0.00000680    0.00000392   14.19381834
     atom    3 type  1   force =    -0.00000000    0.00000000  -14.19392472
     atom    4 type  1   force =    -0.00000680    0.00000392  -14.19392471
     The core correction contribution to forces
     atom    1 type  1   force =    -0.00000000    0.00000000    0.00007022
     atom    2 type  1   force =     0.00000053   -0.00000031    0.00007022
     atom    3 type  1   force =    -0.00000000    0.00000000   -0.00007034
     atom    4 type  1   force =     0.00000053   -0.00000031   -0.00007034
     The Hubbard contrib.    to forces
     atom    1 type  1   force =     0.00000000    0.00000000    0.00000000
     atom    2 type  1   force =     0.00000000    0.00000000    0.00000000
     atom    3 type  1   force =     0.00000000    0.00000000    0.00000000
     atom    4 type  1   force =     0.00000000    0.00000000    0.00000000
     The SCF correction term to forces
     atom    1 type  1   force =     0.00000000   -0.00000000   -0.00000000
     atom    2 type  1   force =    -0.00000000    0.00000000   -0.00000000
     atom    3 type  1   force =     0.00000000   -0.00000000    0.00044155
     atom    4 type  1   force =    -0.00000000    0.00000000    0.00044155

     Total force =     0.002759     Total SCF correction =     0.000624
     SCF correction compared to forces is large: reduce conv_thr to get better values


     Computing stress (Cartesian axis) and pressure



     -----------------------------------------------
     Non-local corr. energy    =       0.19436140 Ry
     -----------------------------------------------

          total   stress  (Ry/bohr**3)                   (kbar)     P=        1.38
  -0.00000185   0.00000000   0.00000000           -0.27        0.00        0.00
   0.00000000  -0.00000185   0.00000000            0.00       -0.27        0.00
   0.00000000   0.00000000   0.00003187            0.00        0.00        4.69

     kinetic stress (kbar)   4526.72      0.00      0.00
                                0.00   4526.72      0.00
                                0.00      0.00   4988.87

     local   stress (kbar)-115130.33      0.00      0.00
                                0.00-115130.32     -0.00
                                0.00     -0.00 116473.85

     nonloc. stress (kbar)   -460.70      0.00      0.00
                                0.00   -460.70      0.00
                                0.00      0.00   -385.78

     hartree stress (kbar)  55764.82      0.00      0.00
                                0.00  55764.82      0.00
                                0.00      0.00 -55414.40

     exc-cor stress (kbar)   -360.45     -0.00      0.00
                               -0.00   -360.45     -0.00
                                0.00     -0.00   -419.89

     corecor stress (kbar)   -686.53      0.00     -0.00
                                0.00   -686.53      0.00
                               -0.00      0.00   -667.82

     ewald   stress (kbar)  56343.07     -0.01      0.00
                               -0.01  56343.06     -0.00
                                0.00     -0.00 -64601.46

     hubbard stress (kbar)      0.00      0.00      0.00
                                0.00      0.00      0.00
                                0.00      0.00      0.00

     DFT-D   stress (kbar)      0.00      0.00      0.00
                                0.00      0.00      0.00
                                0.00      0.00      0.00

     XDM     stress (kbar)      0.00      0.00      0.00
                                0.00      0.00      0.00
                                0.00      0.00      0.00

     dft-nl  stress (kbar)      3.12      0.00      0.00
                                0.00      3.12     -0.00
                                0.00     -0.00     31.32

     TS-vdW  stress (kbar)      0.00      0.00      0.00
                                0.00      0.00      0.00
                                0.00      0.00      0.00

     MDB     stress (kbar)      0.00      0.00      0.00
                                0.00      0.00      0.00
                                0.00      0.00      0.00

     3D-RISM stress (kbar)      0.00      0.00      0.00
                                0.00      0.00      0.00
                                0.00      0.00      0.00


     BFGS Geometry Optimization
     Energy error            =      0.0E+00 Ry
     Gradient error          =      2.0E-03 Ry/Bohr
     Cell gradient error     =      4.7E+00 kbar

     number of scf cycles    =   1
     number of bfgs steps    =   0

     enthalpy           new  =     -48.2542372760 Ry

     new trust radius        =       0.0042258989 bohr
     new conv_thr            =       0.0000010000 Ry

     new unit-cell volume =    703.61221 a.u.^3 (   104.26457 Ang^3 )
     density =      0.76516 g/cm^3

CELL_PARAMETERS (alat=  4.66447000)
   0.999953841   0.000000000   0.000000000
  -0.499976921   0.865985429   0.000000000
   0.000000000   0.000000000   8.006374782

ATOMIC_POSITIONS (crystal)
C             0.0000000000        0.0000000000        0.0000000000    0   0   0
C             0.6666670000        0.3333330000        0.0000000000    0   0   0
C            -0.0000000000       -0.0000000000        0.1675692829
C             0.6666670000        0.3333330000        0.1675692829



     Writing config-only to output data dir ./tmp/C2L_AA_PBE_vdW.save/
     NEW-OLD atomic charge density approx. for the potential

     negative rho (up, down):  4.554E-08 0.000E+00


     -----------------------------------------------
     Non-local corr. energy    =       0.19449088 Ry
     -----------------------------------------------

     extrapolated charge   16.01126, renormalised to   16.00000

     total cpu time spent up to now is       22.8 secs

     Self-consistent Calculation

     iteration #  1     ecut=   120.00 Ry     beta= 0.70
     Davidson diagonalization with overlap

---- Real-time Memory Report at c_bands before calling an iterative solver
             0 MiB given to the printing process from OS
             0 MiB allocation reported by mallinfo(arena+hblkhd)
             0 MiB available memory on the node where the printing process lives
------------------
     c_bands:  1 eigenvalues not converged
     ethr =  1.00E-06,  avg # of iterations =  6.6

     negative rho (up, down):  1.019E-08 0.000E+00


     -----------------------------------------------
     Non-local corr. energy    =       0.19429597 Ry
     -----------------------------------------------


     total cpu time spent up to now is       24.4 secs

     total energy              =     -48.25407827 Ry
     estimated scf accuracy    <       0.00014393 Ry

     iteration #  2     ecut=   120.00 Ry     beta= 0.70
     Davidson diagonalization with overlap

---- Real-time Memory Report at c_bands before calling an iterative solver
             0 MiB given to the printing process from OS
             0 MiB allocation reported by mallinfo(arena+hblkhd)
             0 MiB available memory on the node where the printing process lives
------------------
     ethr =  9.00E-07,  avg # of iterations =  6.6


     -----------------------------------------------
     Non-local corr. energy    =       0.19432697 Ry
     -----------------------------------------------


     total cpu time spent up to now is       26.1 secs

     total energy              =     -48.25422275 Ry
     estimated scf accuracy    <       0.00061381 Ry

     iteration #  3     ecut=   120.00 Ry     beta= 0.70
     Davidson diagonalization with overlap

---- Real-time Memory Report at c_bands before calling an iterative solver
             0 MiB given to the printing process from OS
             0 MiB allocation reported by mallinfo(arena+hblkhd)
             0 MiB available memory on the node where the printing process lives
------------------
     ethr =  9.00E-07,  avg # of iterations =  2.5


     -----------------------------------------------
     Non-local corr. energy    =       0.19435758 Ry
     -----------------------------------------------


     total cpu time spent up to now is       27.3 secs

     total energy              =     -48.25427080 Ry
     estimated scf accuracy    <       0.00006080 Ry

     iteration #  4     ecut=   120.00 Ry     beta= 0.70
     Davidson diagonalization with overlap

---- Real-time Memory Report at c_bands before calling an iterative solver
             0 MiB given to the printing process from OS
             0 MiB allocation reported by mallinfo(arena+hblkhd)
             0 MiB available memory on the node where the printing process lives
------------------
     ethr =  3.80E-07,  avg # of iterations =  1.1


     -----------------------------------------------
     Non-local corr. energy    =       0.19438266 Ry
     -----------------------------------------------


     total cpu time spent up to now is       28.3 secs

     total energy              =     -48.25426596 Ry
     estimated scf accuracy    <       0.00002752 Ry

     iteration #  5     ecut=   120.00 Ry     beta= 0.70
     Davidson diagonalization with overlap

---- Real-time Memory Report at c_bands before calling an iterative solver
             0 MiB given to the printing process from OS
             0 MiB allocation reported by mallinfo(arena+hblkhd)
             0 MiB available memory on the node where the printing process lives
------------------
     ethr =  1.72E-07,  avg # of iterations =  1.1


     -----------------------------------------------
     Non-local corr. energy    =       0.19441416 Ry
     -----------------------------------------------


     total cpu time spent up to now is       29.3 secs

     total energy              =     -48.25426262 Ry
     estimated scf accuracy    <       0.00000990 Ry

     iteration #  6     ecut=   120.00 Ry     beta= 0.70
     Davidson diagonalization with overlap

---- Real-time Memory Report at c_bands before calling an iterative solver
             0 MiB given to the printing process from OS
             0 MiB allocation reported by mallinfo(arena+hblkhd)
             0 MiB available memory on the node where the printing process lives
------------------
     ethr =  6.19E-08,  avg # of iterations =  2.1


     -----------------------------------------------
     Non-local corr. energy    =       0.19441775 Ry
     -----------------------------------------------


     total cpu time spent up to now is       30.3 secs

     End of self-consistent calculation

          k = 0.0000 0.0000 0.0000 ( 15581 PWs)   bands (ev):

   -20.1551 -19.9816  -8.7399  -7.6584  -3.6560  -3.6559  -3.6344  -3.6344
     2.5688   2.9983   4.1765   5.2815

     occupation numbers 
     1.0000   1.0000   1.0000   1.0000   1.0000   1.0000   1.0000   1.0000
     0.0000   0.0000   0.0000   0.0000

          k = 0.0000 0.0962-0.0000 ( 15544 PWs)   bands (ev):

   -19.9908 -19.8190  -8.5412  -7.4655  -4.3068  -4.2784  -3.9933  -3.9701
     2.7886   3.2202   4.4026   5.5061

     occupation numbers 
     1.0000   1.0000   1.0000   1.0000   1.0000   1.0000   1.0000   1.0000
     0.0000   0.0000   0.0000   0.0000

          k = 0.0000 0.1925-0.0000 ( 15550 PWs)   bands (ev):

   -19.4998 -19.3329  -7.9500  -6.8926  -5.9456  -5.9015  -4.7844  -4.7579
     3.4479   3.8847   5.0808   6.1792

     occupation numbers 
     1.0000   1.0000   1.0000   1.0000   1.0000   1.0000   1.0000   1.0000
     0.0000   0.0000   0.0000   0.0000

          k = 0.0000 0.2887-0.0000 ( 15574 PWs)   bands (ev):

   -18.6879 -18.5289  -8.0464  -7.9838  -6.9841  -5.9597  -5.6639  -5.6346
     4.5428   4.9803   6.2025   6.3490

     occupation numbers 
     1.0000   1.0000   1.0000   1.0000   1.0000   1.0000   1.0000   1.0000
     0.0000   0.0000   0.0000   0.0000

          k = 0.0000 0.3849-0.0000 ( 15652 PWs)   bands (ev):

   -17.5675 -17.4191 -10.2523 -10.1712  -6.3977  -6.3666  -5.6913  -4.7200
     3.9631   4.6642   6.0628   6.5630

     occupation numbers 
     1.0000   1.0000   1.0000   1.0000   1.0000   1.0000   1.0000   1.0000
     0.0000   0.0000   0.0000   0.0000

          k = 0.0000 0.4811-0.0000 ( 15630 PWs)   bands (ev):

   -16.1704 -16.0342 -12.3545 -12.2563  -6.8712  -6.8390  -4.2281  -3.3414
     1.7496   2.6206   6.8336   7.0650

     occupation numbers 
     1.0000   1.0000   1.0000   1.0000   1.0000   1.0000   1.0000   1.0000
     0.0000   0.0000   0.0000   0.0000

          k =-0.0000-0.5774 0.0000 ( 15610 PWs)   bands (ev):

   -14.9122 -14.7824 -13.8556 -13.7495  -7.0337  -7.0013  -3.3423  -2.5378
     0.5983   1.5782   6.7540   6.9835

     occupation numbers 
     1.0000   1.0000   1.0000   1.0000   1.0000   1.0000   1.0000   1.0000
     0.0000   0.0000   0.0000   0.0000

          k = 0.0833 0.1443-0.0000 ( 15550 PWs)   bands (ev):

   -19.6632 -19.4946  -8.1462  -7.0825  -5.3419  -5.3041  -4.6690  -4.6411
     3.2284   3.6636   4.8549   5.9553

     occupation numbers 
     1.0000   1.0000   1.0000   1.0000   1.0000   1.0000   1.0000   1.0000
     0.0000   0.0000   0.0000   0.0000

          k = 0.0833 0.2406-0.0000 ( 15563 PWs)   bands (ev):

   -19.0117 -18.8496  -7.3668  -7.0535  -7.0008  -6.3283  -5.6661  -5.6322
     4.1068   4.5469   5.7589   6.8509

     occupation numbers 
     1.0000   1.0000   1.0000   1.0000   1.0000   1.0000   1.0000   1.0000
     0.0000   0.0000   0.0000   0.0000

          k = 0.0833 0.3368-0.0000 ( 15608 PWs)   bands (ev):

   -18.0454 -17.8926  -9.1289  -9.0578  -6.5532  -6.5156  -6.2309  -5.2351
     5.0277   5.4222   5.5718   5.9523

     occupation numbers 
     1.0000   1.0000   1.0000   1.0000   1.0000   1.0000   1.0000   1.0000
     0.0000   0.0000   0.0000   0.0000

          k = 0.0833 0.4330-0.0000 ( 15647 PWs)   bands (ev):

   -16.7834 -16.6422 -11.2539 -11.1649  -7.1888  -7.1492  -4.8201  -3.8910
     2.7497   3.5120   7.1321   7.6294

     occupation numbers 
     1.0000   1.0000   1.0000   1.0000   1.0000   1.0000   1.0000   1.0000
     0.0000   0.0000   0.0000   0.0000

          k = 0.0833 0.5293-0.0000 ( 15642 PWs)   bands (ev):

   -15.3043 -15.1748 -13.1953 -13.0914  -7.5177  -7.4772  -3.4625  -2.6319
     0.9094   1.8206   7.4782   7.7211

     occupation numbers 
     1.0000   1.0000   1.0000   1.0000   1.0000   1.0000   1.0000   1.0000
     0.0000   0.0000   0.0000   0.0000

          k = 0.1667 0.2887-0.0000 ( 15608 PWs)   bands (ev):

   -18.2058 -18.0515  -8.3881  -8.3247  -7.0265  -6.9801  -6.4134  -5.4096
     5.2018   5.5091   5.6450   6.0530

     occupation numbers 
     1.0000   1.0000   1.0000   1.0000   1.0000   1.0000   1.0000   1.0000
     0.0000   0.0000   0.0000   0.0000

          k = 0.1667 0.3849-0.0000 ( 15629 PWs)   bands (ev):

   -17.0963 -16.9525 -10.1172 -10.0386  -8.0837  -8.0302  -5.1357  -4.1851
     3.5202   4.1609   6.7213   7.1659

     occupation numbers 
     1.0000   1.0000   1.0000   1.0000   1.0000   1.0000   1.0000   1.0000
     0.0000   0.0000   0.0000   0.0000

          k = 0.1667 0.4811-0.0000 ( 15632 PWs)   bands (ev):

   -15.7193 -15.5876 -12.0284 -11.9334  -8.6615  -8.6048  -3.6706  -2.8001
     1.5503   2.3138   8.6274   9.0689

     occupation numbers 
     1.0000   1.0000   1.0000   1.0000   1.0000   1.0000   1.0000   1.0000
     0.0000   0.0000   0.0000   0.0000

          k = 0.1667 0.5774-0.0000 ( 15640 PWs)   bands (ev):

   -14.4896 -14.3652 -13.4585 -13.3547  -8.8469  -8.7894  -2.7390  -1.9464
     0.4347   1.2941   9.2099   9.5385

     occupation numbers 
     1.0000   1.0000   1.0000   1.0000   1.0000   1.0000   1.0000   1.0000
     0.0000   0.0000   0.0000   0.0000

          k = 0.2500 0.4330-0.0000 ( 15618 PWs)   bands (ev):

   -15.8668 -15.7342 -11.1578 -11.0697  -9.5643  -9.4977  -3.7626  -2.8762
     1.8932   2.5701   8.4222   8.8157

     occupation numbers 
     1.0000   1.0000   1.0000   1.0000   1.0000   1.0000   1.0000   1.0000
     0.0000   0.0000   0.0000   0.0000

          k = 0.2500 0.5293-0.0000 ( 15609 PWs)   bands (ev):

   -14.4449 -14.3243 -12.5782 -12.4777 -10.2733 -10.2013  -2.3369  -1.5328
     0.3418   1.0866   9.3889  10.4440

     occupation numbers 
     1.0000   1.0000   1.0000   1.0000   1.0000   1.0000   1.0000   1.0000
     0.0000   0.0000   0.0000   0.0000

          k = 0.3333 0.5774-0.0000 ( 15606 PWs)   bands (ev):

   -13.2282 -13.2281 -13.1186 -13.1186 -11.1619 -11.0846  -0.9573  -0.9573
    -0.2037  -0.2037   8.9197  10.8396

     occupation numbers 
     1.0000   1.0000   1.0000   1.0000   1.0000   1.0000   1.0000   1.0000
     0.0000   0.0000   0.0000   0.0000

     the Fermi energy is    -0.6133 ev

!    total energy              =     -48.25426425 Ry
     estimated scf accuracy    <       0.00000014 Ry
     smearing contrib. (-TS)   =       0.00000000 Ry
     internal energy E=F+TS    =     -48.25426425 Ry

     The total energy is F=E-TS. E is the sum of the following terms:
     one-electron contribution =    -529.51329085 Ry
     hartree contribution      =     268.43080463 Ry
     xc contribution           =     -17.21717040 Ry
     ewald contribution        =     230.04539237 Ry

     convergence has been achieved in   6 iterations


     -----------------------------------------------
     Non-local corr. energy    =       0.19441775 Ry
     -----------------------------------------------


     Forces acting on atoms (cartesian axes, Ry/au):

     atom    1 type  1   force =    -0.00000000   -0.00000000   -0.00168784
     atom    2 type  1   force =    -0.00000000   -0.00000000   -0.00168784
     atom    3 type  1   force =    -0.00000000   -0.00000000    0.00168784
     atom    4 type  1   force =    -0.00000000    0.00000000    0.00168784
     The non-local contrib.  to forces
     atom    1 type  1   force =     0.00000000   -0.00000000   -0.00212155
     atom    2 type  1   force =     0.00000000   -0.00000000   -0.00212155
     atom    3 type  1   force =    -0.00000000    0.00000000    0.00213624
     atom    4 type  1   force =    -0.00000000   -0.00000000    0.00213624
     The ionic contribution  to forces
     atom    1 type  1   force =     0.00000852   -0.00000492  -14.19234150
     atom    2 type  1   force =    -0.00000852    0.00000492  -14.19234150
     atom    3 type  1   force =     0.00000852   -0.00000492   14.19234150
     atom    4 type  1   force =    -0.00000852    0.00000492   14.19234150
     The local contribution  to forces
     atom    1 type  1   force =     0.00000000    0.00000000   14.19345084
     atom    2 type  1   force =    -0.00000679    0.00000392   14.19345083
     atom    3 type  1   force =    -0.00000000    0.00000000  -14.19348793
     atom    4 type  1   force =    -0.00000680    0.00000392  -14.19348792
     The core correction contribution to forces
     atom    1 type  1   force =    -0.00000000    0.00000000    0.00006967
     atom    2 type  1   force =     0.00000053   -0.00000031    0.00006967
     atom    3 type  1   force =    -0.00000000    0.00000000   -0.00006994
     atom    4 type  1   force =     0.00000053   -0.00000031   -0.00006994
     The Hubbard contrib.    to forces
     atom    1 type  1   force =     0.00000000    0.00000000    0.00000000
     atom    2 type  1   force =     0.00000000    0.00000000    0.00000000
     atom    3 type  1   force =     0.00000000    0.00000000    0.00000000
     atom    4 type  1   force =     0.00000000    0.00000000    0.00000000
     The SCF correction term to forces
     atom    1 type  1   force =     0.00000000   -0.00000000   -0.00000000
     atom    2 type  1   force =     0.00000000   -0.00000000   -0.00000000
     atom    3 type  1   force =    -0.00000001    0.00000000    0.00077599
     atom    4 type  1   force =    -0.00000001    0.00000000    0.00077599

     Total force =     0.002387     Total SCF correction =     0.001097
     SCF correction compared to forces is large: reduce conv_thr to get better values


     Computing stress (Cartesian axis) and pressure



     -----------------------------------------------
     Non-local corr. energy    =       0.19441775 Ry
     -----------------------------------------------

          total   stress  (Ry/bohr**3)                   (kbar)     P=        1.63
  -0.00000061   0.00000000  -0.00000000           -0.09        0.00       -0.00
   0.00000000  -0.00000061  -0.00000000            0.00       -0.09       -0.00
  -0.00000000  -0.00000000   0.00003451           -0.00       -0.00        5.08

     kinetic stress (kbar)   4523.98     -0.00     -0.00
                               -0.00   4523.98      0.00
                               -0.00      0.00   4985.82

     local   stress (kbar)-115140.22      0.00      0.00
                                0.00-115140.22     -0.00
                                0.00     -0.00 116483.28

     nonloc. stress (kbar)   -460.54      0.00      0.00
                                0.00   -460.54      0.00
                                0.00      0.00   -385.65

     hartree stress (kbar)  55770.99     -0.00     -0.00
                               -0.00  55770.99      0.00
                               -0.00      0.00 -55420.82

     exc-cor stress (kbar)   -360.23     -0.00      0.00
                               -0.00   -360.23     -0.00
                                0.00     -0.00   -419.65

     corecor stress (kbar)   -686.07      0.00     -0.00
                                0.00   -686.07      0.00
                               -0.00      0.00   -667.36

     ewald   stress (kbar)  56348.88     -0.01      0.00
                               -0.01  56348.87      0.00
                                0.00      0.00 -64601.87

     hubbard stress (kbar)      0.00      0.00      0.00
                                0.00      0.00      0.00
                                0.00      0.00      0.00

     DFT-D   stress (kbar)      0.00      0.00      0.00
                                0.00      0.00      0.00
                                0.00      0.00      0.00

     XDM     stress (kbar)      0.00      0.00      0.00
                                0.00      0.00      0.00
                                0.00      0.00      0.00

     dft-nl  stress (kbar)      3.12      0.00      0.00
                                0.00      3.12     -0.00
                                0.00     -0.00     31.31

     TS-vdW  stress (kbar)      0.00      0.00      0.00
                                0.00      0.00      0.00
                                0.00      0.00      0.00

     MDB     stress (kbar)      0.00      0.00      0.00
                                0.00      0.00      0.00
                                0.00      0.00      0.00

     3D-RISM stress (kbar)      0.00      0.00      0.00
                                0.00      0.00      0.00
                                0.00      0.00      0.00

     Energy error            =      2.7E-05 Ry
     Gradient error          =      1.7E-03 Ry/Bohr
     Cell gradient error     =      5.1E+00 kbar

     number of scf cycles    =   2
     number of bfgs steps    =   1

     enthalpy           old  =     -48.2542372760 Ry
     enthalpy           new  =     -48.2542642455 Ry

     CASE: enthalpy          _new < enthalpy          _old


     WARNING: bfgs curvature condition failed, Theta= 0.788
     new trust radius        =       0.0063360318 bohr
     new conv_thr            =       0.0000000100 Ry

     new unit-cell volume =    704.33314 a.u.^3 (   104.37140 Ang^3 )
     density =      0.76438 g/cm^3

CELL_PARAMETERS (alat=  4.66447000)
   0.999869089   0.000000000   0.000000000
  -0.499934545   0.865912032   0.000000000
   0.000000000   0.000000000   8.015936955

ATOMIC_POSITIONS (crystal)
C             0.0000000000        0.0000000000        0.0000000000    0   0   0
C             0.6666670000        0.3333330000        0.0000000000    0   0   0
C             0.0000000000        0.0000000000        0.1676527673
C             0.6666670000        0.3333330000        0.1676527673



     Writing config-only to output data dir ./tmp/C2L_AA_PBE_vdW.save/
     NEW-OLD atomic charge density approx. for the potential

     negative rho (up, down):  7.734E-08 0.000E+00


     -----------------------------------------------
     Non-local corr. energy    =       0.19460770 Ry
     -----------------------------------------------

     extrapolated charge   16.01638, renormalised to   16.00000

     total cpu time spent up to now is       33.8 secs

     Self-consistent Calculation

     iteration #  1     ecut=   120.00 Ry     beta= 0.70
     Davidson diagonalization with overlap

---- Real-time Memory Report at c_bands before calling an iterative solver
             0 MiB given to the printing process from OS
             0 MiB allocation reported by mallinfo(arena+hblkhd)
             0 MiB available memory on the node where the printing process lives
------------------
     ethr =  1.00E-06,  avg # of iterations =  6.4

     negative rho (up, down):  1.751E-08 0.000E+00


     -----------------------------------------------
     Non-local corr. energy    =       0.19430486 Ry
     -----------------------------------------------


     total cpu time spent up to now is       35.5 secs

     total energy              =     -48.25388231 Ry
     estimated scf accuracy    <       0.00033451 Ry

     iteration #  2     ecut=   120.00 Ry     beta= 0.70
     Davidson diagonalization with overlap

---- Real-time Memory Report at c_bands before calling an iterative solver
             0 MiB given to the printing process from OS
             0 MiB allocation reported by mallinfo(arena+hblkhd)
             0 MiB available memory on the node where the printing process lives
------------------
     c_bands:  1 eigenvalues not converged
     ethr =  2.09E-06,  avg # of iterations =  7.8


     -----------------------------------------------
     Non-local corr. energy    =       0.19434965 Ry
     -----------------------------------------------


     total cpu time spent up to now is       37.3 secs

     total energy              =     -48.25420539 Ry
     estimated scf accuracy    <       0.00138369 Ry

     iteration #  3     ecut=   120.00 Ry     beta= 0.70
     Davidson diagonalization with overlap

---- Real-time Memory Report at c_bands before calling an iterative solver
             0 MiB given to the printing process from OS
             0 MiB allocation reported by mallinfo(arena+hblkhd)
             0 MiB available memory on the node where the printing process lives
------------------
     ethr =  2.09E-06,  avg # of iterations =  3.8


     -----------------------------------------------
     Non-local corr. energy    =       0.19440020 Ry
     -----------------------------------------------


     total cpu time spent up to now is       38.6 secs

     total energy              =     -48.25431554 Ry
     estimated scf accuracy    <       0.00013048 Ry

     iteration #  4     ecut=   120.00 Ry     beta= 0.70
     Davidson diagonalization with overlap

---- Real-time Memory Report at c_bands before calling an iterative solver
             0 MiB given to the printing process from OS
             0 MiB allocation reported by mallinfo(arena+hblkhd)
             0 MiB available memory on the node where the printing process lives
------------------
     ethr =  8.16E-07,  avg # of iterations =  1.3


     -----------------------------------------------
     Non-local corr. energy    =       0.19443902 Ry
     -----------------------------------------------


     total cpu time spent up to now is       39.6 secs

     total energy              =     -48.25430585 Ry
     estimated scf accuracy    <       0.00005353 Ry

     iteration #  5     ecut=   120.00 Ry     beta= 0.70
     Davidson diagonalization with overlap

---- Real-time Memory Report at c_bands before calling an iterative solver
             0 MiB given to the printing process from OS
             0 MiB allocation reported by mallinfo(arena+hblkhd)
             0 MiB available memory on the node where the printing process lives
------------------
     ethr =  3.35E-07,  avg # of iterations =  1.3


     -----------------------------------------------
     Non-local corr. energy    =       0.19448137 Ry
     -----------------------------------------------


     total cpu time spent up to now is       40.6 secs

     total energy              =     -48.25430086 Ry
     estimated scf accuracy    <       0.00001648 Ry

     iteration #  6     ecut=   120.00 Ry     beta= 0.70
     Davidson diagonalization with overlap

---- Real-time Memory Report at c_bands before calling an iterative solver
             0 MiB given to the printing process from OS
             0 MiB allocation reported by mallinfo(arena+hblkhd)
             0 MiB available memory on the node where the printing process lives
------------------
     ethr =  1.03E-07,  avg # of iterations =  2.3


     -----------------------------------------------
     Non-local corr. energy    =       0.19448357 Ry
     -----------------------------------------------


     total cpu time spent up to now is       41.7 secs

     total energy              =     -48.25430397 Ry
     estimated scf accuracy    <       0.00000011 Ry

     iteration #  7     ecut=   120.00 Ry     beta= 0.70
     Davidson diagonalization with overlap

---- Real-time Memory Report at c_bands before calling an iterative solver
             0 MiB given to the printing process from OS
             0 MiB allocation reported by mallinfo(arena+hblkhd)
             0 MiB available memory on the node where the printing process lives
------------------
     ethr =  7.01E-10,  avg # of iterations =  4.1


     -----------------------------------------------
     Non-local corr. energy    =       0.19448327 Ry
     -----------------------------------------------


     total cpu time spent up to now is       43.0 secs

     total energy              =     -48.25430413 Ry
     estimated scf accuracy    <       0.00000002 Ry

     iteration #  8     ecut=   120.00 Ry     beta= 0.70
     Davidson diagonalization with overlap

---- Real-time Memory Report at c_bands before calling an iterative solver
             0 MiB given to the printing process from OS
             0 MiB allocation reported by mallinfo(arena+hblkhd)
             0 MiB available memory on the node where the printing process lives
------------------
     ethr =  1.14E-10,  avg # of iterations =  2.1


     -----------------------------------------------
     Non-local corr. energy    =       0.19448342 Ry
     -----------------------------------------------


     total cpu time spent up to now is       44.1 secs

     total energy              =     -48.25430413 Ry
     estimated scf accuracy    <       0.00000001 Ry

     iteration #  9     ecut=   120.00 Ry     beta= 0.70
     Davidson diagonalization with overlap

---- Real-time Memory Report at c_bands before calling an iterative solver
             0 MiB given to the printing process from OS
             0 MiB allocation reported by mallinfo(arena+hblkhd)
             0 MiB available memory on the node where the printing process lives
------------------
     ethr =  8.49E-11,  avg # of iterations =  2.0


     -----------------------------------------------
     Non-local corr. energy    =       0.19448364 Ry
     -----------------------------------------------


     total cpu time spent up to now is       45.2 secs

     End of self-consistent calculation

          k = 0.0000 0.0000 0.0000 ( 15581 PWs)   bands (ev):

   -20.1567 -19.9855  -8.7384  -7.6658  -3.6566  -3.6565  -3.6354  -3.6354
     2.5633   2.9931   4.1701   5.2725

     occupation numbers 
     1.0000   1.0000   1.0000   1.0000   1.0000   1.0000   1.0000   1.0000
     0.0000   0.0000   0.0000   0.0000

          k = 0.0000 0.0962-0.0000 ( 15544 PWs)   bands (ev):

   -19.9925 -19.8229  -8.5397  -7.4729  -4.3074  -4.2795  -3.9940  -3.9712
     2.7831   3.2151   4.3962   5.4972

     occupation numbers 
     1.0000   1.0000   1.0000   1.0000   1.0000   1.0000   1.0000   1.0000
     0.0000   0.0000   0.0000   0.0000

          k = 0.0000 0.1925-0.0000 ( 15550 PWs)   bands (ev):

   -19.5014 -19.3367  -7.9484  -6.8997  -5.9463  -5.9029  -4.7853  -4.7592
     3.4425   3.8797   5.0745   6.1704

     occupation numbers 
     1.0000   1.0000   1.0000   1.0000   1.0000   1.0000   1.0000   1.0000
     0.0000   0.0000   0.0000   0.0000

          k = 0.0000 0.2887-0.0000 ( 15574 PWs)   bands (ev):

   -18.6894 -18.5326  -8.0472  -7.9855  -6.9823  -5.9665  -5.6649  -5.6362
     4.5375   4.9755   6.1966   6.3519

     occupation numbers 
     1.0000   1.0000   1.0000   1.0000   1.0000   1.0000   1.0000   1.0000
     0.0000   0.0000   0.0000   0.0000

          k = 0.0000 0.3850-0.0000 ( 15652 PWs)   bands (ev):

   -17.5689 -17.4225 -10.2533 -10.1734  -6.3989  -6.3683  -5.6892  -4.7264
     3.9664   4.6611   6.0580   6.5585

     occupation numbers 
     1.0000   1.0000   1.0000   1.0000   1.0000   1.0000   1.0000   1.0000
     0.0000   0.0000   0.0000   0.0000

          k = 0.0000 0.4812-0.0000 ( 15630 PWs)   bands (ev):

   -16.1716 -16.0374 -12.3557 -12.2590  -6.8725  -6.8409  -4.2258  -3.3472
     1.7527   2.6164   6.8366   7.0654

     occupation numbers 
     1.0000   1.0000   1.0000   1.0000   1.0000   1.0000   1.0000   1.0000
     0.0000   0.0000   0.0000   0.0000

          k =-0.0000-0.5774 0.0000 ( 15610 PWs)   bands (ev):

   -14.9130 -14.7850 -13.8573 -13.7527  -7.0351  -7.0031  -3.3399  -2.5431
     0.6014   1.5733   6.7572   6.9838

     occupation numbers 
     1.0000   1.0000   1.0000   1.0000   1.0000   1.0000   1.0000   1.0000
     0.0000   0.0000   0.0000   0.0000

          k = 0.0833 0.1444-0.0000 ( 15550 PWs)   bands (ev):

   -19.6648 -19.4985  -8.1445  -7.0897  -5.3425  -5.3054  -4.6698  -4.6424
     3.2230   3.6586   4.8486   5.9465

     occupation numbers 
     1.0000   1.0000   1.0000   1.0000   1.0000   1.0000   1.0000   1.0000
     0.0000   0.0000   0.0000   0.0000

          k = 0.0833 0.2406-0.0000 ( 15563 PWs)   bands (ev):

   -19.0133 -18.8534  -7.3650  -7.0543  -7.0023  -6.3353  -5.6671  -5.6338
     4.1015   4.5421   5.7527   6.8422

     occupation numbers 
     1.0000   1.0000   1.0000   1.0000   1.0000   1.0000   1.0000   1.0000
     0.0000   0.0000   0.0000   0.0000

          k = 0.0833 0.3368-0.0000 ( 15608 PWs)   bands (ev):

   -18.0469 -17.8961  -9.1298  -9.0598  -6.5544  -6.5173  -6.2290  -5.2417
     5.0311   5.4171   5.5689   5.9480

     occupation numbers 
     1.0000   1.0000   1.0000   1.0000   1.0000   1.0000   1.0000   1.0000
     0.0000   0.0000   0.0000   0.0000

          k = 0.0833 0.4331-0.0000 ( 15647 PWs)   bands (ev):

   -16.7847 -16.6454 -11.2550 -11.1673  -7.1900  -7.1511  -4.8179  -3.8970
     2.7530   3.5084   7.1278   7.6225

     occupation numbers 
     1.0000   1.0000   1.0000   1.0000   1.0000   1.0000   1.0000   1.0000
     0.0000   0.0000   0.0000   0.0000

          k = 0.0833 0.5293-0.0000 ( 15642 PWs)   bands (ev):

   -15.3054 -15.1776 -13.1967 -13.0942  -7.5191  -7.4792  -3.4602  -2.6373
     0.9125   1.8160   7.4814   7.7215

     occupation numbers 
     1.0000   1.0000   1.0000   1.0000   1.0000   1.0000   1.0000   1.0000
     0.0000   0.0000   0.0000   0.0000

          k = 0.1667 0.2887-0.0000 ( 15608 PWs)   bands (ev):

   -18.2073 -18.0551  -8.3888  -8.3264  -7.0278  -6.9821  -6.4115  -5.4162
     5.1966   5.5128   5.6403   6.0508

     occupation numbers 
     1.0000   1.0000   1.0000   1.0000   1.0000   1.0000   1.0000   1.0000
     0.0000   0.0000   0.0000   0.0000

          k = 0.1667 0.3850-0.0000 ( 15629 PWs)   bands (ev):

   -17.0977 -16.9558 -10.1181 -10.0407  -8.0851  -8.0323  -5.1336  -4.1913
     3.5236   4.1578   6.7164   7.1615

     occupation numbers 
     1.0000   1.0000   1.0000   1.0000   1.0000   1.0000   1.0000   1.0000
     0.0000   0.0000   0.0000   0.0000

          k = 0.1667 0.4812-0.0000 ( 15632 PWs)   bands (ev):

   -15.7205 -15.5907 -12.0296 -11.9359  -8.6629  -8.6071  -3.6683  -2.8057
     1.5534   2.3099   8.6235   9.0650

     occupation numbers 
     1.0000   1.0000   1.0000   1.0000   1.0000   1.0000   1.0000   1.0000
     0.0000   0.0000   0.0000   0.0000

          k = 0.1667 0.5774-0.0000 ( 15640 PWs)   bands (ev):

   -14.4904 -14.3677 -13.4600 -13.3577  -8.8484  -8.7917  -2.7365  -1.9515
     0.4377   1.2896   9.2138   9.5391

     occupation numbers 
     1.0000   1.0000   1.0000   1.0000   1.0000   1.0000   1.0000   1.0000
     0.0000   0.0000   0.0000   0.0000

          k = 0.2500 0.4331-0.0000 ( 15618 PWs)   bands (ev):

   -15.8681 -15.7373 -11.1586 -11.0718  -9.5659  -9.5003  -3.7603  -2.8819
     1.8963   2.5665   8.4176   8.8118

     occupation numbers 
     1.0000   1.0000   1.0000   1.0000   1.0000   1.0000   1.0000   1.0000
     0.0000   0.0000   0.0000   0.0000

          k = 0.2500 0.5293-0.0000 ( 15609 PWs)   bands (ev):

   -14.4459 -14.3270 -12.5792 -12.4802 -10.2750 -10.2041  -2.3344  -1.5379
     0.3448   1.0824   9.3908  10.4396

     occupation numbers 
     1.0000   1.0000   1.0000   1.0000   1.0000   1.0000   1.0000   1.0000
     0.0000   0.0000   0.0000   0.0000

          k = 0.3334 0.5774-0.0000 ( 15606 PWs)   bands (ev):

   -13.2290 -13.2289 -13.1210 -13.1210 -11.1640 -11.0878  -0.9546  -0.9546
    -0.2083  -0.2082   8.9224  10.8347

     occupation numbers 
     1.0000   1.0000   1.0000   1.0000   1.0000   1.0000   1.0000   1.0000
     0.0000   0.0000   0.0000   0.0000

     the Fermi energy is    -0.6170 ev

!    total energy              =     -48.25430414 Ry
     estimated scf accuracy    <          3.6E-10 Ry
     smearing contrib. (-TS)   =       0.00000000 Ry
     internal energy E=F+TS    =     -48.25430414 Ry

     The total energy is F=E-TS. E is the sum of the following terms:
     one-electron contribution =    -530.15699244 Ry
     hartree contribution      =     268.74874309 Ry
     xc contribution           =     -17.21763492 Ry
     ewald contribution        =     230.37158013 Ry

     convergence has been achieved in   9 iterations


     -----------------------------------------------
     Non-local corr. energy    =       0.19448364 Ry
     -----------------------------------------------


     Forces acting on atoms (cartesian axes, Ry/au):

     atom    1 type  1   force =     0.00000000    0.00000000   -0.00184701
     atom    2 type  1   force =    -0.00000000   -0.00000000   -0.00184701
     atom    3 type  1   force =     0.00000000   -0.00000000    0.00184701
     atom    4 type  1   force =    -0.00000000   -0.00000000    0.00184701
     The non-local contrib.  to forces
     atom    1 type  1   force =     0.00000000    0.00000000   -0.00214594
     atom    2 type  1   force =     0.00000000   -0.00000000   -0.00214594
     atom    3 type  1   force =    -0.00000000   -0.00000000    0.00214594
     atom    4 type  1   force =    -0.00000000    0.00000000    0.00214594
     The ionic contribution  to forces
     atom    1 type  1   force =     0.00000852   -0.00000492  -14.19115056
     atom    2 type  1   force =    -0.00000852    0.00000492  -14.19115056
     atom    3 type  1   force =     0.00000852   -0.00000492   14.19115056
     atom    4 type  1   force =    -0.00000852    0.00000492   14.19115056
     The local contribution  to forces
     atom    1 type  1   force =    -0.00000000    0.00000000   14.19142922
     atom    2 type  1   force =    -0.00000679    0.00000392   14.19142921
     atom    3 type  1   force =    -0.00000000    0.00000000  -14.19142693
     atom    4 type  1   force =    -0.00000679    0.00000392  -14.19142692
     The core correction contribution to forces
     atom    1 type  1   force =    -0.00000000    0.00000000    0.00006005
     atom    2 type  1   force =     0.00000053   -0.00000031    0.00006005
     atom    3 type  1   force =    -0.00000000    0.00000000   -0.00006001
     atom    4 type  1   force =     0.00000053   -0.00000031   -0.00006001
     The Hubbard contrib.    to forces
     atom    1 type  1   force =     0.00000000    0.00000000    0.00000000
     atom    2 type  1   force =     0.00000000    0.00000000    0.00000000
     atom    3 type  1   force =     0.00000000    0.00000000    0.00000000
     atom    4 type  1   force =     0.00000000    0.00000000    0.00000000
     The SCF correction term to forces
     atom    1 type  1   force =    -0.00000000    0.00000000   -0.00000000
     atom    2 type  1   force =    -0.00000000    0.00000000   -0.00000000
     atom    3 type  1   force =    -0.00000000    0.00000000    0.00003760
     atom    4 type  1   force =    -0.00000000    0.00000000    0.00003760

     Total force =     0.002612     Total SCF correction =     0.000053


     Computing stress (Cartesian axis) and pressure



     -----------------------------------------------
     Non-local corr. energy    =       0.19448364 Ry
     -----------------------------------------------

          total   stress  (Ry/bohr**3)                   (kbar)     P=        1.79
   0.00000196  -0.00000000  -0.00000000            0.29       -0.00       -0.00
  -0.00000000   0.00000196  -0.00000000           -0.00        0.29       -0.00
  -0.00000000  -0.00000000   0.00003265           -0.00       -0.00        4.80

     kinetic stress (kbar)   4519.77      0.00     -0.00
                               -0.00   4519.77      0.00
                                0.00     -0.00   4980.67

     local   stress (kbar)-115157.63      0.00      0.00
                                0.00-115157.63     -0.00
                                0.00     -0.00 116500.07

     nonloc. stress (kbar)   -460.16      0.00      0.00
                                0.00   -460.16     -0.00
                                0.00     -0.00   -385.25

     hartree stress (kbar)  55780.40      0.00      0.00
                                0.00  55780.40     -0.00
                                0.00     -0.00 -55430.68

     exc-cor stress (kbar)   -359.88     -0.00     -0.00
                               -0.00   -359.88      0.00
                               -0.00      0.00   -419.28

     corecor stress (kbar)   -685.38      0.00      0.00
                                0.00   -685.38     -0.00
                                0.00     -0.00   -666.68

     ewald   stress (kbar)  56360.07     -0.01      0.00
                               -0.01  56360.06     -0.00
                                0.00     -0.00 -64605.35

     hubbard stress (kbar)      0.00      0.00      0.00
                                0.00      0.00      0.00
                                0.00      0.00      0.00

     DFT-D   stress (kbar)      0.00      0.00      0.00
                                0.00      0.00      0.00
                                0.00      0.00      0.00

     XDM     stress (kbar)      0.00      0.00      0.00
                                0.00      0.00      0.00
                                0.00      0.00      0.00

     dft-nl  stress (kbar)      3.11      0.00      0.00
                                0.00      3.11     -0.00
                                0.00     -0.00     31.30

     TS-vdW  stress (kbar)      0.00      0.00      0.00
                                0.00      0.00      0.00
                                0.00      0.00      0.00

     MDB     stress (kbar)      0.00      0.00      0.00
                                0.00      0.00      0.00
                                0.00      0.00      0.00

     3D-RISM stress (kbar)      0.00      0.00      0.00
                                0.00      0.00      0.00
                                0.00      0.00      0.00

     Energy error            =      4.0E-05 Ry
     Gradient error          =      1.8E-03 Ry/Bohr
     Cell gradient error     =      4.8E+00 kbar

     number of scf cycles    =   3
     number of bfgs steps    =   2

     enthalpy           old  =     -48.2542642455 Ry
     enthalpy           new  =     -48.2543041362 Ry

     CASE: enthalpy          _new < enthalpy          _old

     new trust radius        =       0.0094975723 bohr
     new conv_thr            =       0.0000000100 Ry

     new unit-cell volume =    705.51381 a.u.^3 (   104.54636 Ang^3 )
     density =      0.76310 g/cm^3

CELL_PARAMETERS (alat=  4.66447000)
   0.999812670  -0.000000000   0.000000000
  -0.499906335   0.865863171   0.000000000
   0.000000000   0.000000000   8.030280214

ATOMIC_POSITIONS (crystal)
C             0.0000000000        0.0000000000        0.0000000000    0   0   0
C             0.6666670000        0.3333330000        0.0000000000    0   0   0
C             0.0000000000        0.0000000000        0.1677857720
C             0.6666670000        0.3333330000        0.1677857720



     Writing config-only to output data dir ./tmp/C2L_AA_PBE_vdW.save/
     NEW-OLD atomic charge density approx. for the potential

     negative rho (up, down):  1.346E-07 0.000E+00


     -----------------------------------------------
     Non-local corr. energy    =       0.19479559 Ry
     -----------------------------------------------

     extrapolated charge   16.02678, renormalised to   16.00000

     total cpu time spent up to now is       48.6 secs

     Self-consistent Calculation

     iteration #  1     ecut=   120.00 Ry     beta= 0.70
     Davidson diagonalization with overlap

---- Real-time Memory Report at c_bands before calling an iterative solver
             0 MiB given to the printing process from OS
             0 MiB allocation reported by mallinfo(arena+hblkhd)
             0 MiB available memory on the node where the printing process lives
------------------
     ethr =  1.00E-06,  avg # of iterations =  8.7

     negative rho (up, down):  2.906E-08 0.000E+00


     -----------------------------------------------
     Non-local corr. energy    =       0.19429112 Ry
     -----------------------------------------------


     total cpu time spent up to now is       50.6 secs

     total energy              =     -48.25325624 Ry
     estimated scf accuracy    <       0.00085101 Ry

     iteration #  2     ecut=   120.00 Ry     beta= 0.70
     Davidson diagonalization with overlap

---- Real-time Memory Report at c_bands before calling an iterative solver
             0 MiB given to the printing process from OS
             0 MiB allocation reported by mallinfo(arena+hblkhd)
             0 MiB available memory on the node where the printing process lives
------------------
     c_bands:  2 eigenvalues not converged
     c_bands:  1 eigenvalues not converged
     c_bands:  1 eigenvalues not converged
     ethr =  5.32E-06,  avg # of iterations =  9.0

     negative rho (up, down):  1.311E-08 0.000E+00


     -----------------------------------------------
     Non-local corr. energy    =       0.19436293 Ry
     -----------------------------------------------


     total cpu time spent up to now is       52.6 secs

     total energy              =     -48.25411560 Ry
     estimated scf accuracy    <       0.00365298 Ry

     iteration #  3     ecut=   120.00 Ry     beta= 0.70
     Davidson diagonalization with overlap

---- Real-time Memory Report at c_bands before calling an iterative solver
             0 MiB given to the printing process from OS
             0 MiB allocation reported by mallinfo(arena+hblkhd)
             0 MiB available memory on the node where the printing process lives
------------------
[...]

     iteration #  3     ecut=   120.00 Ry     beta= 0.70
     Davidson diagonalization with overlap

---- Real-time Memory Report at c_bands before calling an iterative solver
             0 MiB given to the printing process from OS
             0 MiB allocation reported by mallinfo(arena+hblkhd)
             0 MiB available memory on the node where the printing process lives
------------------
     ethr =  3.51E-05,  avg # of iterations =  8.1


     -----------------------------------------------
     Non-local corr. energy    =       0.19639495 Ry
     -----------------------------------------------


     total cpu time spent up to now is      196.5 secs

     total energy              =     -48.25451697 Ry
     estimated scf accuracy    <       0.00100029 Ry

     iteration #  4     ecut=   120.00 Ry     beta= 0.70
     Davidson diagonalization with overlap

---- Real-time Memory Report at c_bands before calling an iterative solver
             0 MiB given to the printing process from OS
             0 MiB allocation reported by mallinfo(arena+hblkhd)
             0 MiB available memory on the node where the printing process lives
------------------
     ethr =  6.25E-06,  avg # of iterations =  4.5


     -----------------------------------------------
     Non-local corr. energy    =       0.19647516 Ry
     -----------------------------------------------


     total cpu time spent up to now is      197.9 secs

     total energy              =     -48.25470514 Ry
     estimated scf accuracy    <       0.00078867 Ry

     iteration #  5     ecut=   120.00 Ry     beta= 0.70
     Davidson diagonalization with overlap

---- Real-time Memory Report at c_bands before calling an iterative solver
             0 MiB given to the printing process from OS
             0 MiB allocation reported by mallinfo(arena+hblkhd)
             0 MiB available memory on the node where the printing process lives
------------------
     ethr =  4.93E-06,  avg # of iterations =  3.3


     -----------------------------------------------
     Non-local corr. energy    =       0.19657044 Ry
     -----------------------------------------------


     total cpu time spent up to now is      199.1 secs

     total energy              =     -48.25485671 Ry
     estimated scf accuracy    <       0.00000272 Ry

     iteration #  6     ecut=   120.00 Ry     beta= 0.70
     Davidson diagonalization with overlap

---- Real-time Memory Report at c_bands before calling an iterative solver
             0 MiB given to the printing process from OS
             0 MiB allocation reported by mallinfo(arena+hblkhd)
             0 MiB available memory on the node where the printing process lives
------------------
     ethr =  1.70E-08,  avg # of iterations =  3.8


     -----------------------------------------------
     Non-local corr. energy    =       0.19656918 Ry
     -----------------------------------------------


     total cpu time spent up to now is      200.6 secs

     total energy              =     -48.25485884 Ry
     estimated scf accuracy    <       0.00000020 Ry

     iteration #  7     ecut=   120.00 Ry     beta= 0.70
     Davidson diagonalization with overlap

---- Real-time Memory Report at c_bands before calling an iterative solver
             0 MiB given to the printing process from OS
             0 MiB allocation reported by mallinfo(arena+hblkhd)
             0 MiB available memory on the node where the printing process lives
------------------
     ethr =  1.27E-09,  avg # of iterations =  2.8


     -----------------------------------------------
     Non-local corr. energy    =       0.19656885 Ry
     -----------------------------------------------


     total cpu time spent up to now is      201.9 secs

     total energy              =     -48.25485888 Ry
     estimated scf accuracy    <       0.00000012 Ry

     iteration #  8     ecut=   120.00 Ry     beta= 0.70
     Davidson diagonalization with overlap

---- Real-time Memory Report at c_bands before calling an iterative solver
             0 MiB given to the printing process from OS
             0 MiB allocation reported by mallinfo(arena+hblkhd)
             0 MiB available memory on the node where the printing process lives
------------------
     ethr =  7.28E-10,  avg # of iterations =  1.8


     -----------------------------------------------
     Non-local corr. energy    =       0.19657069 Ry
     -----------------------------------------------


     total cpu time spent up to now is      203.1 secs

     End of self-consistent calculation

          k = 0.0000 0.0000 0.0000 ( 16173 PWs)   bands (ev):

   -20.2439 -20.1279  -8.7428  -7.9043  -3.7778  -3.7777  -3.7652  -3.7652
     2.3875   2.8397   3.9829   5.1894

     occupation numbers 
     1.0000   1.0000   1.0000   1.0000   1.0000   1.0000   1.0000   1.0000
     0.0000   0.0000   0.0000   0.0000

          k =-0.0000 0.0962-0.0000 ( 16106 PWs)   bands (ev):

   -20.0800 -19.9652  -8.5444  -7.7109  -4.4270  -4.4101  -4.1146  -4.1010
     2.6070   3.0616   4.2087   5.3991

     occupation numbers 
     1.0000   1.0000   1.0000   1.0000   1.0000   1.0000   1.0000   1.0000
     0.0000   0.0000   0.0000   0.0000

          k =-0.0000 0.1924-0.0000 ( 16106 PWs)   bands (ev):

   -19.5899 -19.4787  -7.9542  -7.1363  -6.0621  -6.0350  -4.9045  -4.8888
     3.2652   3.7261   4.8860   6.0233

     occupation numbers 
     1.0000   1.0000   1.0000   1.0000   1.0000   1.0000   1.0000   1.0000
     0.0000   0.0000   0.0000   0.0000

          k =-0.0000 0.2886-0.0000 ( 16178 PWs)   bands (ev):

   -18.7796 -18.6740  -8.1585  -8.1192  -6.9902  -6.2006  -5.7830  -5.7654
     4.3588   4.8220   6.0041   6.2806

     occupation numbers 
     1.0000   1.0000   1.0000   1.0000   1.0000   1.0000   1.0000   1.0000
     0.0000   0.0000   0.0000   0.0000

          k =-0.0000 0.3849-0.0000 ( 16238 PWs)   bands (ev):

   -17.6613 -17.5633 -10.3602 -10.3085  -6.5161  -6.4973  -5.7004  -4.9564
     3.9268   4.4564   5.8760   6.4008

     occupation numbers 
     1.0000   1.0000   1.0000   1.0000   1.0000   1.0000   1.0000   1.0000
     0.0000   0.0000   0.0000   0.0000

          k =-0.0000 0.4811-0.0000 ( 16220 PWs)   bands (ev):

   -16.2669 -16.1775 -12.4584 -12.3950  -6.9891  -6.9697  -4.2421  -3.5710
     1.7272   2.3979   6.7433   6.9045

     occupation numbers 
     1.0000   1.0000   1.0000   1.0000   1.0000   1.0000   1.0000   1.0000
     0.0000   0.0000   0.0000   0.0000

          k = 0.0000-0.5773 0.0000 ( 16170 PWs)   bands (ev):

   -15.0107 -14.9263 -13.9571 -13.8878  -7.1515  -7.1319  -3.3610  -2.7613
     0.5835   1.3468   6.6657   6.8226

     occupation numbers 
     1.0000   1.0000   1.0000   1.0000   1.0000   1.0000   1.0000   1.0000
     0.0000   0.0000   0.0000   0.0000

          k = 0.0833 0.1443-0.0000 ( 16120 PWs)   bands (ev):

   -19.7530 -19.6406  -8.1500  -7.3268  -5.4599  -5.4369  -4.7889  -4.7722
     3.0461   3.5050   4.6605   5.8183

     occupation numbers 
     1.0000   1.0000   1.0000   1.0000   1.0000   1.0000   1.0000   1.0000
     0.0000   0.0000   0.0000   0.0000

          k = 0.0833 0.2405-0.0000 ( 16149 PWs)   bands (ev):

   -19.1028 -18.9950  -7.3720  -7.1680  -7.1353  -6.5704  -5.7843  -5.7636
     3.9231   4.3884   5.5629   6.6358

     occupation numbers 
     1.0000   1.0000   1.0000   1.0000   1.0000   1.0000   1.0000   1.0000
     0.0000   0.0000   0.0000   0.0000

          k = 0.0833 0.3368-0.0000 ( 16206 PWs)   bands (ev):

   -18.1384 -18.0371  -9.2391  -9.1942  -6.6701  -6.6471  -6.2388  -5.4736
     4.9842   5.2352   5.3816   5.7818

     occupation numbers 
     1.0000   1.0000   1.0000   1.0000   1.0000   1.0000   1.0000   1.0000
     0.0000   0.0000   0.0000   0.0000

          k = 0.0833 0.4330-0.0000 ( 16221 PWs)   bands (ev):

   -16.8787 -16.7857 -11.3600 -11.3029  -7.3051  -7.2807  -4.8317  -4.1239
     2.7203   3.2976   6.9471   7.5923

     occupation numbers 
     1.0000   1.0000   1.0000   1.0000   1.0000   1.0000   1.0000   1.0000
     0.0000   0.0000   0.0000   0.0000

          k = 0.0833 0.5292-0.0000 ( 16234 PWs)   bands (ev):

   -15.4024 -15.3178 -13.2978 -13.2303  -7.6337  -7.6087  -3.4798  -2.8572
     0.8909   1.5940   7.3898   7.5598

     occupation numbers 
     1.0000   1.0000   1.0000   1.0000   1.0000   1.0000   1.0000   1.0000
     0.0000   0.0000   0.0000   0.0000

          k = 0.1666 0.2886-0.0000 ( 16176 PWs)   bands (ev):

   -18.2985 -18.1962  -8.5002  -8.4606  -7.1412  -7.1123  -6.4208  -5.6488
     5.0164   5.4642   5.4868   5.8556

     occupation numbers 
     1.0000   1.0000   1.0000   1.0000   1.0000   1.0000   1.0000   1.0000
     0.0000   0.0000   0.0000   0.0000

          k = 0.1666 0.3849-0.0000 ( 16213 PWs)   bands (ev):

   -17.1911 -17.0963 -10.2259 -10.1760  -8.1968  -8.1630  -5.1461  -4.4198
     3.4843   3.9546   6.5339   7.0080

     occupation numbers 
     1.0000   1.0000   1.0000   1.0000   1.0000   1.0000   1.0000   1.0000
     0.0000   0.0000   0.0000   0.0000

          k = 0.1666 0.4811-0.0000 ( 16218 PWs)   bands (ev):

   -15.8167 -15.7305 -12.1332 -12.0721  -8.7738  -8.7380  -3.6858  -3.0283
     1.5240   2.0974   8.4414   9.2538

     occupation numbers 
     1.0000   1.0000   1.0000   1.0000   1.0000   1.0000   1.0000   1.0000
     0.0000   0.0000   0.0000   0.0000

          k = 0.1666 0.5773-0.0000 ( 16210 PWs)   bands (ev):

   -14.5892 -14.5084 -13.5607 -13.4931  -8.9590  -8.9227  -2.7588  -2.1687
     0.4149   1.0704   9.1317   9.3750

     occupation numbers 
     1.0000   1.0000   1.0000   1.0000   1.0000   1.0000   1.0000   1.0000
     0.0000   0.0000   0.0000   0.0000

          k = 0.2500 0.4330-0.0000 ( 16212 PWs)   bands (ev):

   -15.9640 -15.8771 -11.2647 -11.2086  -9.6739  -9.6312  -3.7769  -3.1056
     1.8623   2.3594   8.2358   8.6589

     occupation numbers 
     1.0000   1.0000   1.0000   1.0000   1.0000   1.0000   1.0000   1.0000
     0.0000   0.0000   0.0000   0.0000

          k = 0.2500 0.5292-0.0000 ( 16181 PWs)   bands (ev):

   -14.5448 -14.4664 -12.6821 -12.6174 -10.3817 -10.3354  -2.3564  -1.7556
     0.3165   0.8699   9.3330  10.2410

     occupation numbers 
     1.0000   1.0000   1.0000   1.0000   1.0000   1.0000   1.0000   1.0000
     0.0000   0.0000   0.0000   0.0000

          k = 0.3333 0.5773-0.0000 ( 16218 PWs)   bands (ev):

   -13.3307 -13.3306 -13.2601 -13.2601 -11.2683 -11.2179  -0.9807  -0.9807
    -0.4221  -0.4221   8.8951  10.6213

     occupation numbers 
     1.0000   1.0000   1.0000   1.0000   1.0000   1.0000   1.0000   1.0000
     0.0000   0.0000   0.0000   0.0000

     the Fermi energy is    -0.6623 ev

!    total energy              =     -48.25485890 Ry
     estimated scf accuracy    <          4.8E-09 Ry
     smearing contrib. (-TS)   =       0.00000000 Ry
     internal energy E=F+TS    =     -48.25485890 Ry

     The total energy is F=E-TS. E is the sum of the following terms:
     one-electron contribution =    -545.74168255 Ry
     hartree contribution      =     276.46500648 Ry
     xc contribution           =     -17.20949906 Ry
     ewald contribution        =     238.23131623 Ry

     convergence has been achieved in   8 iterations


     -----------------------------------------------
     Non-local corr. energy    =       0.19657069 Ry
     -----------------------------------------------


     Forces acting on atoms (cartesian axes, Ry/au):

     atom    1 type  1   force =     0.00000000    0.00000000   -0.00008674
     atom    2 type  1   force =     0.00000000    0.00000000   -0.00008674
     atom    3 type  1   force =    -0.00000000   -0.00000000    0.00008674
     atom    4 type  1   force =    -0.00000000   -0.00000000    0.00008674
     The non-local contrib.  to forces
     atom    1 type  1   force =     0.00000000    0.00000000   -0.00045264
     atom    2 type  1   force =     0.00000000    0.00000000   -0.00045264
     atom    3 type  1   force =    -0.00000000    0.00000000    0.00045025
     atom    4 type  1   force =    -0.00000000   -0.00000000    0.00045025
     The ionic contribution  to forces
     atom    1 type  1   force =     0.00000851   -0.00000491  -14.07288727
     atom    2 type  1   force =    -0.00000851    0.00000491  -14.07288727
     atom    3 type  1   force =     0.00000851   -0.00000491   14.07288727
     atom    4 type  1   force =    -0.00000851    0.00000491   14.07288727
     The local contribution  to forces
     atom    1 type  1   force =    -0.00000000    0.00000000   14.07320961
     atom    2 type  1   force =    -0.00000679    0.00000392   14.07320961
     atom    3 type  1   force =     0.00000000    0.00000000  -14.07312764
     atom    4 type  1   force =    -0.00000679    0.00000392  -14.07312764
     The core correction contribution to forces
     atom    1 type  1   force =    -0.00000000    0.00000000   -0.00003900
     atom    2 type  1   force =     0.00000053   -0.00000031   -0.00003900
     atom    3 type  1   force =    -0.00000000    0.00000000    0.00003902
     atom    4 type  1   force =     0.00000053   -0.00000031    0.00003902
     The Hubbard contrib.    to forces
     atom    1 type  1   force =     0.00000000    0.00000000    0.00000000
     atom    2 type  1   force =     0.00000000    0.00000000    0.00000000
     atom    3 type  1   force =     0.00000000    0.00000000    0.00000000
     atom    4 type  1   force =     0.00000000    0.00000000    0.00000000
     The SCF correction term to forces
     atom    1 type  1   force =    -0.00000000    0.00000000    0.00000000
     atom    2 type  1   force =     0.00000000   -0.00000000    0.00000000
     atom    3 type  1   force =    -0.00000000    0.00000000   -0.00016794
     atom    4 type  1   force =     0.00000000   -0.00000000   -0.00016794

     Total force =     0.000123     Total SCF correction =     0.000238
     SCF correction compared to forces is large: reduce conv_thr to get better values


     Computing stress (Cartesian axis) and pressure



     -----------------------------------------------
     Non-local corr. energy    =       0.19657069 Ry
     -----------------------------------------------

          total   stress  (Ry/bohr**3)                   (kbar)     P=        0.09
   0.00000016   0.00000000  -0.00000000            0.02        0.00       -0.00
  -0.00000000   0.00000016  -0.00000000           -0.00        0.02       -0.00
  -0.00000000  -0.00000000   0.00000151           -0.00       -0.00        0.22

     kinetic stress (kbar)   4363.52     -0.00     -0.00
                               -0.00   4363.52     -0.00
                               -0.00     -0.00   4804.00

     local   stress (kbar)-114350.15      0.00      0.00
                                0.00-114350.15     -0.00
                                0.00     -0.00 115646.51

     nonloc. stress (kbar)   -444.03      0.00      0.00
                                0.00   -444.03      0.00
                                0.00      0.00   -371.16

     hartree stress (kbar)  55424.69      0.00      0.00
                                0.00  55424.69     -0.00
                                0.00     -0.00 -55087.47

     exc-cor stress (kbar)   -347.10     -0.00     -0.00
                               -0.00   -347.10      0.00
                               -0.00      0.00   -405.07

     corecor stress (kbar)   -661.85      0.00      0.00
                                0.00   -661.85     -0.00
                                0.00     -0.00   -643.74

     ewald   stress (kbar)  56011.99     -0.01     -0.00
                               -0.01  56011.98      0.00
                               -0.00      0.00 -63973.64

     hubbard stress (kbar)      0.00      0.00      0.00
                                0.00      0.00      0.00
                                0.00      0.00      0.00

     DFT-D   stress (kbar)      0.00      0.00      0.00
                                0.00      0.00      0.00
                                0.00      0.00      0.00

     XDM     stress (kbar)      0.00      0.00      0.00
                                0.00      0.00      0.00
                                0.00      0.00      0.00

     dft-nl  stress (kbar)      2.96      0.00     -0.00
                                0.00      2.96      0.00
                               -0.00      0.00     30.78

     TS-vdW  stress (kbar)      0.00      0.00      0.00
                                0.00      0.00      0.00
                                0.00      0.00      0.00

     MDB     stress (kbar)      0.00      0.00      0.00
                                0.00      0.00      0.00
                                0.00      0.00      0.00

     3D-RISM stress (kbar)      0.00      0.00      0.00
                                0.00      0.00      0.00
                                0.00      0.00      0.00


     Writing all to output data dir ./tmp/C2L_AA_PBE_vdW.save/

     init_run     :     10.97s CPU     11.04s WALL (       2 calls)
     electrons    :    165.40s CPU    161.66s WALL (      10 calls)
     update_pot   :      6.76s CPU      6.98s WALL (       8 calls)
     forces       :      6.27s CPU      6.53s WALL (      10 calls)
     stress       :     18.20s CPU     19.42s WALL (      10 calls)

     Called by init_run:
     wfcinit      :      0.84s CPU      0.84s WALL (       2 calls)
     wfcinit:atom :      0.02s CPU      0.02s WALL (      38 calls)
     wfcinit:wfcr :      0.76s CPU      0.75s WALL (      38 calls)
     potinit      :      8.84s CPU      8.90s WALL (       2 calls)
     hinit0       :      0.91s CPU      0.92s WALL (       2 calls)

     Called by electrons:
     c_bands      :    132.50s CPU    125.99s WALL (     109 calls)
     sum_band     :     14.70s CPU     15.00s WALL (     109 calls)
     v_of_rho     :     26.95s CPU     29.21s WALL (     119 calls)
     v_h          :      0.22s CPU      0.22s WALL (     119 calls)
     v_xc         :     29.86s CPU     32.49s WALL (     139 calls)
     mix_rho      :      0.74s CPU      1.08s WALL (     109 calls)
     vdW_kernel   :      8.17s CPU      8.19s WALL (       1 calls)

     Called by c_bands:
     init_us_2    :      2.55s CPU      2.59s WALL (    4560 calls)
     init_us_2:cp :      2.54s CPU      2.57s WALL (    4560 calls)
     cegterg      :    128.42s CPU    121.78s WALL (    2071 calls)

     Called by sum_band:
     sum_band:wei :      0.01s CPU      0.01s WALL (     109 calls)
     sum_band:loo :     14.22s CPU     14.50s WALL (     109 calls)
     sum_band:buf :      0.54s CPU      0.55s WALL (    2071 calls)
     sum_band:ini :      1.25s CPU      1.28s WALL (    2071 calls)

     Called by *egterg:
     cdiaghg      :      2.52s CPU      2.58s WALL (   13033 calls)
     cegterg:over :      7.44s CPU      7.68s WALL (   11114 calls)
     cegterg:upda :      6.67s CPU      5.48s WALL (   11114 calls)
     cegterg:last :      8.21s CPU      5.82s WALL (    5364 calls)
     h_psi        :    100.32s CPU     96.44s WALL (   13223 calls)
     g_psi        :      0.67s CPU      0.82s WALL (   11114 calls)

     Called by h_psi:
     h_psi:calbec :     10.05s CPU      8.75s WALL (   13223 calls)
     vloc_psi     :     77.48s CPU     79.18s WALL (   13223 calls)
     add_vuspsi   :     11.85s CPU      7.48s WALL (   13223 calls)

     General routines
     calbec       :     10.83s CPU      9.52s WALL (   14173 calls)
     fft          :      8.62s CPU      8.82s WALL (    8828 calls)
     ffts         :      0.11s CPU      0.11s WALL (     109 calls)
     fftw         :     75.62s CPU     77.07s WALL (  180148 calls)

     Parallel routines

     PWSCF        :   3m27.77s CPU   3m25.88s WALL


   This run was terminated on:  16: 5:38  14Apr2024            

=------------------------------------------------------------------------------=
   JOB DONE.
=------------------------------------------------------------------------------=
