
     Program PWSCF v.6.7MaX starts on 14Feb2024 at 12:35:50 

     This program is part of the open-source Quantum ESPRESSO suite
     for quantum simulation of materials; please cite
         "P. Giannozzi et al., J. Phys.:Condens. Matter 21 395502 (2009);
         "P. Giannozzi et al., J. Phys.:Condens. Matter 29 465901 (2017);
          URL http://www.quantum-espresso.org", 
     in publications or presentations arising from this work. More details at
     http://www.quantum-espresso.org/quote

     Parallel version (MPI), running on     1 processors

     MPI processes distributed on     1 nodes
     Waiting for input...
     Reading input from standard input

     Current dimensions of program PWSCF are:
     Max number of different atomic species (ntypx) = 10
     Max number of k-points (npk) =  40000
     Max angular momentum in pseudopotentials (lmaxx) =  3
     Message from routine read_pp_mesh:
     mesh size missing, using the one in header

     Subspace diagonalization in iterative solution of the eigenvalue problem:
     a serial algorithm will be used


     G-vector sticks info
     --------------------
     sticks:   dense  smooth     PW     G-vecs:    dense   smooth      PW
     Sum         361     361    109                32597    32597    5597



     bravais-lattice index     =            4
     lattice parameter (alat)  =       4.6350  a.u.
     unit-cell volume          =     517.4056 (a.u.)^3
     number of atoms/cell      =            2
     number of atomic types    =            1
     number of electrons       =         8.00
     number of Kohn-Sham states=            8
     kinetic-energy cutoff     =      60.0000  Ry
     charge density cutoff     =     240.0000  Ry
     scf convergence threshold =      1.0E-06
     mixing beta               =       0.7000
     number of iterations used =            8  plain     mixing
     Exchange-correlation= PZ
                           (   1   1   0   0   0   0   0)

     celldm(1)=   4.635000  celldm(2)=   0.000000  celldm(3)=   6.000000
     celldm(4)=   0.000000  celldm(5)=   0.000000  celldm(6)=   0.000000

     crystal axes: (cart. coord. in units of alat)
               a(1) = (   1.000000   0.000000   0.000000 )  
               a(2) = (  -0.500000   0.866025   0.000000 )  
               a(3) = (   0.000000   0.000000   6.000000 )  

     reciprocal axes: (cart. coord. in units 2 pi/alat)
               b(1) = (  1.000000  0.577350 -0.000000 )  
               b(2) = (  0.000000  1.154701  0.000000 )  
               b(3) = (  0.000000 -0.000000  0.166667 )  


     PseudoPot. # 1 for C  read from file:
     ../../../../Pseudo/LDA/C.upf
     MD5 check sum: 9ef9f0a1c6c947210c7947280cfb54e2
     Pseudo is Norm-conserving + core correction, Zval =  4.0
     Generated using ONCVPSP code by D. R. Hamann
     Using radial grid of 1230 points,  4 beta functions with: 
                l(1) =   0
                l(2) =   0
                l(3) =   1
                l(4) =   1

     atomic species   valence    mass     pseudopotential
        C              4.00    12.01100     C ( 1.00)

     24 Sym. Ops., with inversion, found (12 have fractional translation)


                                    s                        frac. trans.

      isym =  1     identity                                     

 cryst.   s( 1) = (     1          0          0      )
                  (     0          1          0      )
                  (     0          0          1      )

 cart.    s( 1) = (  1.0000000  0.0000000  0.0000000 )
                  (  0.0000000  1.0000000  0.0000000 )
                  (  0.0000000  0.0000000  1.0000000 )


      isym =  2     180 deg rotation - cart. axis [0,0,1]        

 cryst.   s( 2) = (    -1          0          0      )    f =( -0.3333333 )
                  (     0         -1          0      )       (  0.3333333 )
                  (     0          0          1      )       (  0.0000000 )

 cart.    s( 2) = ( -1.0000000  0.0000000  0.0000000 )    f =( -0.5000000 )
                  (  0.0000000 -1.0000000  0.0000000 )       (  0.2886751 )
                  (  0.0000000  0.0000000  1.0000000 )       (  0.0000000 )


      isym =  3     180 deg rotation - cart. axis [0,1,0]        

 cryst.   s( 3) = (    -1          0          0      )
                  (     1          1          0      )
                  (     0          0         -1      )

 cart.    s( 3) = ( -1.0000000  0.0000000  0.0000000 )
                  (  0.0000000  1.0000000  0.0000000 )
                  (  0.0000000  0.0000000 -1.0000000 )


      isym =  4     180 deg rotation - cart. axis [1,0,0]        

 cryst.   s( 4) = (     1          0          0      )    f =( -0.3333333 )
                  (    -1         -1          0      )       (  0.3333333 )
                  (     0          0         -1      )       (  0.0000000 )

 cart.    s( 4) = (  1.0000000  0.0000000  0.0000000 )    f =( -0.5000000 )
                  (  0.0000000 -1.0000000  0.0000000 )       (  0.2886751 )
                  (  0.0000000  0.0000000 -1.0000000 )       (  0.0000000 )


      isym =  5      60 deg rotation - cryst. axis [0,0,1]       

 cryst.   s( 5) = (     1          1          0      )    f =( -0.3333333 )
                  (    -1          0          0      )       (  0.3333333 )
                  (     0          0          1      )       (  0.0000000 )

 cart.    s( 5) = (  0.5000000 -0.8660254  0.0000000 )    f =( -0.5000000 )
                  (  0.8660254  0.5000000  0.0000000 )       (  0.2886751 )
                  (  0.0000000  0.0000000  1.0000000 )       (  0.0000000 )


      isym =  6      60 deg rotation - cryst. axis [0,0,-1]      

 cryst.   s( 6) = (     0         -1          0      )    f =( -0.3333333 )
                  (     1          1          0      )       (  0.3333333 )
                  (     0          0          1      )       (  0.0000000 )

 cart.    s( 6) = (  0.5000000  0.8660254  0.0000000 )    f =( -0.5000000 )
                  ( -0.8660254  0.5000000  0.0000000 )       (  0.2886751 )
                  (  0.0000000  0.0000000  1.0000000 )       (  0.0000000 )


      isym =  7     120 deg rotation - cryst. axis [0,0,1]       

 cryst.   s( 7) = (     0          1          0      )
                  (    -1         -1          0      )
                  (     0          0          1      )

 cart.    s( 7) = ( -0.5000000 -0.8660254  0.0000000 )
                  (  0.8660254 -0.5000000  0.0000000 )
                  (  0.0000000  0.0000000  1.0000000 )


      isym =  8     120 deg rotation - cryst. axis [0,0,-1]      

 cryst.   s( 8) = (    -1         -1          0      )
                  (     1          0          0      )
                  (     0          0          1      )

 cart.    s( 8) = ( -0.5000000  0.8660254  0.0000000 )
                  ( -0.8660254 -0.5000000  0.0000000 )
                  (  0.0000000  0.0000000  1.0000000 )


      isym =  9     180 deg rotation - cryst. axis [1,-1,0]      

 cryst.   s( 9) = (     0         -1          0      )
                  (    -1          0          0      )
                  (     0          0         -1      )

 cart.    s( 9) = (  0.5000000 -0.8660254  0.0000000 )
                  ( -0.8660254 -0.5000000  0.0000000 )
                  (  0.0000000  0.0000000 -1.0000000 )


      isym = 10     180 deg rotation - cryst. axis [2,1,0]       

 cryst.   s(10) = (     1          1          0      )
                  (     0         -1          0      )
                  (     0          0         -1      )

 cart.    s(10) = (  0.5000000  0.8660254  0.0000000 )
                  (  0.8660254 -0.5000000  0.0000000 )
                  (  0.0000000  0.0000000 -1.0000000 )


      isym = 11     180 deg rotation - cryst. axis [0,1,0]       

 cryst.   s(11) = (    -1         -1          0      )    f =( -0.3333333 )
                  (     0          1          0      )       (  0.3333333 )
                  (     0          0         -1      )       (  0.0000000 )

 cart.    s(11) = ( -0.5000000 -0.8660254  0.0000000 )    f =( -0.5000000 )
                  ( -0.8660254  0.5000000  0.0000000 )       (  0.2886751 )
                  (  0.0000000  0.0000000 -1.0000000 )       (  0.0000000 )


      isym = 12     180 deg rotation - cryst. axis [1,1,0]       

 cryst.   s(12) = (     0          1          0      )    f =( -0.3333333 )
                  (     1          0          0      )       (  0.3333333 )
                  (     0          0         -1      )       (  0.0000000 )

 cart.    s(12) = ( -0.5000000  0.8660254  0.0000000 )    f =( -0.5000000 )
                  (  0.8660254  0.5000000  0.0000000 )       (  0.2886751 )
                  (  0.0000000  0.0000000 -1.0000000 )       (  0.0000000 )


      isym = 13     inversion                                    

 cryst.   s(13) = (    -1          0          0      )    f =( -0.3333333 )
                  (     0         -1          0      )       (  0.3333333 )
                  (     0          0         -1      )       (  0.0000000 )

 cart.    s(13) = ( -1.0000000  0.0000000  0.0000000 )    f =( -0.5000000 )
                  (  0.0000000 -1.0000000  0.0000000 )       (  0.2886751 )
                  (  0.0000000  0.0000000 -1.0000000 )       (  0.0000000 )


      isym = 14     inv. 180 deg rotation - cart. axis [0,0,1]   

 cryst.   s(14) = (     1          0          0      )
                  (     0          1          0      )
                  (     0          0         -1      )

 cart.    s(14) = (  1.0000000  0.0000000  0.0000000 )
                  (  0.0000000  1.0000000  0.0000000 )
                  (  0.0000000  0.0000000 -1.0000000 )


      isym = 15     inv. 180 deg rotation - cart. axis [0,1,0]   

 cryst.   s(15) = (     1          0          0      )    f =( -0.3333333 )
                  (    -1         -1          0      )       (  0.3333333 )
                  (     0          0          1      )       (  0.0000000 )

 cart.    s(15) = (  1.0000000  0.0000000  0.0000000 )    f =( -0.5000000 )
                  (  0.0000000 -1.0000000  0.0000000 )       (  0.2886751 )
                  (  0.0000000  0.0000000  1.0000000 )       (  0.0000000 )


      isym = 16     inv. 180 deg rotation - cart. axis [1,0,0]   

 cryst.   s(16) = (    -1          0          0      )
                  (     1          1          0      )
                  (     0          0          1      )

 cart.    s(16) = ( -1.0000000  0.0000000  0.0000000 )
                  (  0.0000000  1.0000000  0.0000000 )
                  (  0.0000000  0.0000000  1.0000000 )


      isym = 17     inv.  60 deg rotation - cryst. axis [0,0,1]  

 cryst.   s(17) = (    -1         -1          0      )
                  (     1          0          0      )
                  (     0          0         -1      )

 cart.    s(17) = ( -0.5000000  0.8660254  0.0000000 )
                  ( -0.8660254 -0.5000000  0.0000000 )
                  (  0.0000000  0.0000000 -1.0000000 )


      isym = 18     inv.  60 deg rotation - cryst. axis [0,0,-1] 

 cryst.   s(18) = (     0          1          0      )
                  (    -1         -1          0      )
                  (     0          0         -1      )

 cart.    s(18) = ( -0.5000000 -0.8660254  0.0000000 )
                  (  0.8660254 -0.5000000  0.0000000 )
                  (  0.0000000  0.0000000 -1.0000000 )


      isym = 19     inv. 120 deg rotation - cryst. axis [0,0,1]  

 cryst.   s(19) = (     0         -1          0      )    f =( -0.3333333 )
                  (     1          1          0      )       (  0.3333333 )
                  (     0          0         -1      )       (  0.0000000 )

 cart.    s(19) = (  0.5000000  0.8660254  0.0000000 )    f =( -0.5000000 )
                  ( -0.8660254  0.5000000  0.0000000 )       (  0.2886751 )
                  (  0.0000000  0.0000000 -1.0000000 )       (  0.0000000 )


      isym = 20     inv. 120 deg rotation - cryst. axis [0,0,-1] 

 cryst.   s(20) = (     1          1          0      )    f =( -0.3333333 )
                  (    -1          0          0      )       (  0.3333333 )
                  (     0          0         -1      )       (  0.0000000 )

 cart.    s(20) = (  0.5000000 -0.8660254  0.0000000 )    f =( -0.5000000 )
                  (  0.8660254  0.5000000  0.0000000 )       (  0.2886751 )
                  (  0.0000000  0.0000000 -1.0000000 )       (  0.0000000 )


      isym = 21     inv. 180 deg rotation - cryst. axis [1,-1,0] 

 cryst.   s(21) = (     0          1          0      )    f =( -0.3333333 )
                  (     1          0          0      )       (  0.3333333 )
                  (     0          0          1      )       (  0.0000000 )

 cart.    s(21) = ( -0.5000000  0.8660254  0.0000000 )    f =( -0.5000000 )
                  (  0.8660254  0.5000000  0.0000000 )       (  0.2886751 )
                  (  0.0000000  0.0000000  1.0000000 )       (  0.0000000 )


      isym = 22     inv. 180 deg rotation - cryst. axis [2,1,0]  

 cryst.   s(22) = (    -1         -1          0      )    f =( -0.3333333 )
                  (     0          1          0      )       (  0.3333333 )
                  (     0          0          1      )       (  0.0000000 )

 cart.    s(22) = ( -0.5000000 -0.8660254  0.0000000 )    f =( -0.5000000 )
                  ( -0.8660254  0.5000000  0.0000000 )       (  0.2886751 )
                  (  0.0000000  0.0000000  1.0000000 )       (  0.0000000 )


      isym = 23     inv. 180 deg rotation - cryst. axis [0,1,0]  

 cryst.   s(23) = (     1          1          0      )
                  (     0         -1          0      )
                  (     0          0          1      )

 cart.    s(23) = (  0.5000000  0.8660254  0.0000000 )
                  (  0.8660254 -0.5000000  0.0000000 )
                  (  0.0000000  0.0000000  1.0000000 )


      isym = 24     inv. 180 deg rotation - cryst. axis [1,1,0]  

 cryst.   s(24) = (     0         -1          0      )
                  (    -1          0          0      )
                  (     0          0          1      )

 cart.    s(24) = (  0.5000000 -0.8660254  0.0000000 )
                  ( -0.8660254 -0.5000000  0.0000000 )
                  (  0.0000000  0.0000000  1.0000000 )


     point group D_6h(6/mmm)
     there are 12 classes
     the character table:

       E     2C6   2C3   C2    3C2'  3C2'' i     2S3   2S6   s_h   3s_d  3s_v 
A_1g   1.00  1.00  1.00  1.00  1.00  1.00  1.00  1.00  1.00  1.00  1.00  1.00
A_2g   1.00  1.00  1.00  1.00 -1.00 -1.00  1.00  1.00  1.00  1.00 -1.00 -1.00
B_1g   1.00 -1.00  1.00 -1.00  1.00 -1.00  1.00 -1.00  1.00 -1.00  1.00 -1.00
B_2g   1.00 -1.00  1.00 -1.00 -1.00  1.00  1.00 -1.00  1.00 -1.00 -1.00  1.00
E_1g   2.00  1.00 -1.00 -2.00  0.00  0.00  2.00  1.00 -1.00 -2.00  0.00  0.00
E_2g   2.00 -1.00 -1.00  2.00  0.00  0.00  2.00 -1.00 -1.00  2.00  0.00  0.00
A_1u   1.00  1.00  1.00  1.00  1.00  1.00 -1.00 -1.00 -1.00 -1.00 -1.00 -1.00
A_2u   1.00  1.00  1.00  1.00 -1.00 -1.00 -1.00 -1.00 -1.00 -1.00  1.00  1.00
B_1u   1.00 -1.00  1.00 -1.00  1.00 -1.00 -1.00  1.00 -1.00  1.00 -1.00  1.00
B_2u   1.00 -1.00  1.00 -1.00 -1.00  1.00 -1.00  1.00 -1.00  1.00  1.00 -1.00
E_1u   2.00  1.00 -1.00 -2.00  0.00  0.00 -2.00 -1.00  1.00  2.00  0.00  0.00
E_2u   2.00 -1.00 -1.00  2.00  0.00  0.00 -2.00  1.00  1.00 -2.00  0.00  0.00

     the symmetry operations in each class and the name of the first element:

     E        1
          identity                                               
     2C6      5    6
           60 deg rotation - cryst. axis [0,0,1]                 
     2C3      7    8
          120 deg rotation - cryst. axis [0,0,1]                 
     C2       2
          180 deg rotation - cart. axis [0,0,1]                  
     3C2'     4   12   11
          180 deg rotation - cart. axis [1,0,0]                  
     3C2''    3    9   10
          180 deg rotation - cart. axis [0,1,0]                  
     i       13
          inversion                                              
     2S3     17   18
          inv.  60 deg rotation - cryst. axis [0,0,1]            
     2S6     19   20
          inv. 120 deg rotation - cryst. axis [0,0,1]            
     s_h     14
          inv. 180 deg rotation - cart. axis [0,0,1]             
     3s_d    16   24   23
          inv. 180 deg rotation - cart. axis [1,0,0]             
     3s_v    15   21   22
          inv. 180 deg rotation - cart. axis [0,1,0]             

   Cartesian axes

     site n.     atom                  positions (alat units)
         1           C   tau(   1) = (   0.0000000   0.0000000   0.0000000  )
         2           C   tau(   2) = (  -0.0000000   0.5773503   0.0000000  )

   Crystallographic axes

     site n.     atom                  positions (cryst. coord.)
         1           C   tau(   1) = (  0.0000000  0.0000000  0.0000000  )
         2           C   tau(   2) = (  0.3333333  0.6666667  0.0000000  )

     number of k points=    80  Marzari-Vanderbilt smearing, width (Ry)=  0.0100
                       cart. coord. in units 2pi/alat
        k(    1) = (   0.0000000   0.0000000   0.0000000), wk =   0.0025510
        k(    2) = (   0.0000000   0.0412393   0.0000000), wk =   0.0153061
        k(    3) = (   0.0000000   0.0824786   0.0000000), wk =   0.0153061
        k(    4) = (   0.0000000   0.1237179   0.0000000), wk =   0.0153061
        k(    5) = (   0.0000000   0.1649572   0.0000000), wk =   0.0153061
        k(    6) = (   0.0000000   0.2061965   0.0000000), wk =   0.0153061
        k(    7) = (   0.0000000   0.2474358   0.0000000), wk =   0.0153061
        k(    8) = (   0.0000000   0.2886751   0.0000000), wk =   0.0153061
        k(    9) = (   0.0000000   0.3299144   0.0000000), wk =   0.0153061
        k(   10) = (   0.0000000   0.3711537   0.0000000), wk =   0.0153061
        k(   11) = (   0.0000000   0.4123930   0.0000000), wk =   0.0153061
        k(   12) = (   0.0000000   0.4536324   0.0000000), wk =   0.0153061
        k(   13) = (   0.0000000   0.4948717   0.0000000), wk =   0.0153061
        k(   14) = (   0.0000000   0.5361110   0.0000000), wk =   0.0153061
        k(   15) = (   0.0000000  -0.5773503   0.0000000), wk =   0.0076531
        k(   16) = (   0.0357143   0.0618590   0.0000000), wk =   0.0153061
        k(   17) = (   0.0357143   0.1030983   0.0000000), wk =   0.0306122
        k(   18) = (   0.0357143   0.1443376   0.0000000), wk =   0.0306122
        k(   19) = (   0.0357143   0.1855769   0.0000000), wk =   0.0306122
        k(   20) = (   0.0357143   0.2268162   0.0000000), wk =   0.0306122
        k(   21) = (   0.0357143   0.2680555   0.0000000), wk =   0.0306122
        k(   22) = (   0.0357143   0.3092948   0.0000000), wk =   0.0306122
        k(   23) = (   0.0357143   0.3505341   0.0000000), wk =   0.0306122
        k(   24) = (   0.0357143   0.3917734   0.0000000), wk =   0.0306122
        k(   25) = (   0.0357143   0.4330127   0.0000000), wk =   0.0306122
        k(   26) = (   0.0357143   0.4742520   0.0000000), wk =   0.0306122
        k(   27) = (   0.0357143   0.5154913   0.0000000), wk =   0.0306122
        k(   28) = (   0.0357143   0.5567306   0.0000000), wk =   0.0306122
        k(   29) = (   0.0714286   0.1237179   0.0000000), wk =   0.0153061
        k(   30) = (   0.0714286   0.1649572   0.0000000), wk =   0.0306122
        k(   31) = (   0.0714286   0.2061965   0.0000000), wk =   0.0306122
        k(   32) = (   0.0714286   0.2474358   0.0000000), wk =   0.0306122
        k(   33) = (   0.0714286   0.2886751   0.0000000), wk =   0.0306122
        k(   34) = (   0.0714286   0.3299144   0.0000000), wk =   0.0306122
        k(   35) = (   0.0714286   0.3711537   0.0000000), wk =   0.0306122
        k(   36) = (   0.0714286   0.4123930   0.0000000), wk =   0.0306122
        k(   37) = (   0.0714286   0.4536324   0.0000000), wk =   0.0306122
        k(   38) = (   0.0714286   0.4948717   0.0000000), wk =   0.0306122
        k(   39) = (   0.0714286   0.5361110   0.0000000), wk =   0.0306122
        k(   40) = (   0.0714286   0.5773503   0.0000000), wk =   0.0153061
        k(   41) = (   0.1071429   0.1855769   0.0000000), wk =   0.0153061
        k(   42) = (   0.1071429   0.2268162   0.0000000), wk =   0.0306122
        k(   43) = (   0.1071429   0.2680555   0.0000000), wk =   0.0306122
        k(   44) = (   0.1071429   0.3092948   0.0000000), wk =   0.0306122
        k(   45) = (   0.1071429   0.3505341   0.0000000), wk =   0.0306122
        k(   46) = (   0.1071429   0.3917734   0.0000000), wk =   0.0306122
        k(   47) = (   0.1071429   0.4330127   0.0000000), wk =   0.0306122
        k(   48) = (   0.1071429   0.4742520   0.0000000), wk =   0.0306122
        k(   49) = (   0.1071429   0.5154913   0.0000000), wk =   0.0306122
        k(   50) = (   0.1071429   0.5567306   0.0000000), wk =   0.0306122
        k(   51) = (   0.1428571   0.2474358   0.0000000), wk =   0.0153061
        k(   52) = (   0.1428571   0.2886751   0.0000000), wk =   0.0306122
        k(   53) = (   0.1428571   0.3299144   0.0000000), wk =   0.0306122
        k(   54) = (   0.1428571   0.3711537   0.0000000), wk =   0.0306122
        k(   55) = (   0.1428571   0.4123930   0.0000000), wk =   0.0306122
        k(   56) = (   0.1428571   0.4536324   0.0000000), wk =   0.0306122
        k(   57) = (   0.1428571   0.4948717   0.0000000), wk =   0.0306122
        k(   58) = (   0.1428571   0.5361110   0.0000000), wk =   0.0306122
        k(   59) = (   0.1428571   0.5773503   0.0000000), wk =   0.0153061
        k(   60) = (   0.1785714   0.3092948   0.0000000), wk =   0.0153061
        k(   61) = (   0.1785714   0.3505341   0.0000000), wk =   0.0306122
        k(   62) = (   0.1785714   0.3917734   0.0000000), wk =   0.0306122
        k(   63) = (   0.1785714   0.4330127   0.0000000), wk =   0.0306122
        k(   64) = (   0.1785714   0.4742520   0.0000000), wk =   0.0306122
        k(   65) = (   0.1785714   0.5154913   0.0000000), wk =   0.0306122
        k(   66) = (   0.1785714   0.5567306   0.0000000), wk =   0.0306122
        k(   67) = (   0.2142857   0.3711537   0.0000000), wk =   0.0153061
        k(   68) = (   0.2142857   0.4123930   0.0000000), wk =   0.0306122
        k(   69) = (   0.2142857   0.4536324   0.0000000), wk =   0.0306122
        k(   70) = (   0.2142857   0.4948717   0.0000000), wk =   0.0306122
        k(   71) = (   0.2142857   0.5361110   0.0000000), wk =   0.0306122
        k(   72) = (   0.2142857   0.5773503   0.0000000), wk =   0.0153061
        k(   73) = (   0.2500000   0.4330127   0.0000000), wk =   0.0153061
        k(   74) = (   0.2500000   0.4742520   0.0000000), wk =   0.0306122
        k(   75) = (   0.2500000   0.5154913   0.0000000), wk =   0.0306122
        k(   76) = (   0.2500000   0.5567306   0.0000000), wk =   0.0306122
        k(   77) = (   0.2857143   0.4948717   0.0000000), wk =   0.0153061
        k(   78) = (   0.2857143   0.5361110   0.0000000), wk =   0.0306122
        k(   79) = (   0.2857143   0.5773503   0.0000000), wk =   0.0153061
        k(   80) = (   0.3214286   0.5567306   0.0000000), wk =   0.0153061

                       cryst. coord.
        k(    1) = (   0.0000000   0.0000000   0.0000000), wk =   0.0025510
        k(    2) = (   0.0000000   0.0357143   0.0000000), wk =   0.0153061
        k(    3) = (   0.0000000   0.0714286   0.0000000), wk =   0.0153061
        k(    4) = (   0.0000000   0.1071429   0.0000000), wk =   0.0153061
        k(    5) = (   0.0000000   0.1428571   0.0000000), wk =   0.0153061
        k(    6) = (   0.0000000   0.1785714   0.0000000), wk =   0.0153061
        k(    7) = (   0.0000000   0.2142857   0.0000000), wk =   0.0153061
        k(    8) = (   0.0000000   0.2500000   0.0000000), wk =   0.0153061
        k(    9) = (   0.0000000   0.2857143   0.0000000), wk =   0.0153061
        k(   10) = (   0.0000000   0.3214286   0.0000000), wk =   0.0153061
        k(   11) = (   0.0000000   0.3571429   0.0000000), wk =   0.0153061
        k(   12) = (   0.0000000   0.3928571   0.0000000), wk =   0.0153061
        k(   13) = (   0.0000000   0.4285714   0.0000000), wk =   0.0153061
        k(   14) = (   0.0000000   0.4642857   0.0000000), wk =   0.0153061
        k(   15) = (   0.0000000  -0.5000000   0.0000000), wk =   0.0076531
        k(   16) = (   0.0357143   0.0357143   0.0000000), wk =   0.0153061
        k(   17) = (   0.0357143   0.0714286   0.0000000), wk =   0.0306122
        k(   18) = (   0.0357143   0.1071429   0.0000000), wk =   0.0306122
        k(   19) = (   0.0357143   0.1428571   0.0000000), wk =   0.0306122
        k(   20) = (   0.0357143   0.1785714   0.0000000), wk =   0.0306122
        k(   21) = (   0.0357143   0.2142857   0.0000000), wk =   0.0306122
        k(   22) = (   0.0357143   0.2500000   0.0000000), wk =   0.0306122
        k(   23) = (   0.0357143   0.2857143   0.0000000), wk =   0.0306122
        k(   24) = (   0.0357143   0.3214286   0.0000000), wk =   0.0306122
        k(   25) = (   0.0357143   0.3571429   0.0000000), wk =   0.0306122
        k(   26) = (   0.0357143   0.3928571   0.0000000), wk =   0.0306122
        k(   27) = (   0.0357143   0.4285714   0.0000000), wk =   0.0306122
        k(   28) = (   0.0357143   0.4642857   0.0000000), wk =   0.0306122
        k(   29) = (   0.0714286   0.0714286   0.0000000), wk =   0.0153061
        k(   30) = (   0.0714286   0.1071429   0.0000000), wk =   0.0306122
        k(   31) = (   0.0714286   0.1428571   0.0000000), wk =   0.0306122
        k(   32) = (   0.0714286   0.1785714   0.0000000), wk =   0.0306122
        k(   33) = (   0.0714286   0.2142857   0.0000000), wk =   0.0306122
        k(   34) = (   0.0714286   0.2500000   0.0000000), wk =   0.0306122
        k(   35) = (   0.0714286   0.2857143   0.0000000), wk =   0.0306122
        k(   36) = (   0.0714286   0.3214286   0.0000000), wk =   0.0306122
        k(   37) = (   0.0714286   0.3571429   0.0000000), wk =   0.0306122
        k(   38) = (   0.0714286   0.3928571   0.0000000), wk =   0.0306122
        k(   39) = (   0.0714286   0.4285714   0.0000000), wk =   0.0306122
        k(   40) = (   0.0714286   0.4642857   0.0000000), wk =   0.0153061
        k(   41) = (   0.1071429   0.1071429   0.0000000), wk =   0.0153061
        k(   42) = (   0.1071429   0.1428571   0.0000000), wk =   0.0306122
        k(   43) = (   0.1071429   0.1785714   0.0000000), wk =   0.0306122
        k(   44) = (   0.1071429   0.2142857   0.0000000), wk =   0.0306122
        k(   45) = (   0.1071429   0.2500000   0.0000000), wk =   0.0306122
        k(   46) = (   0.1071429   0.2857143   0.0000000), wk =   0.0306122
        k(   47) = (   0.1071429   0.3214286   0.0000000), wk =   0.0306122
        k(   48) = (   0.1071429   0.3571429   0.0000000), wk =   0.0306122
        k(   49) = (   0.1071429   0.3928571   0.0000000), wk =   0.0306122
        k(   50) = (   0.1071429   0.4285714   0.0000000), wk =   0.0306122
        k(   51) = (   0.1428571   0.1428571   0.0000000), wk =   0.0153061
        k(   52) = (   0.1428571   0.1785714   0.0000000), wk =   0.0306122
        k(   53) = (   0.1428571   0.2142857   0.0000000), wk =   0.0306122
        k(   54) = (   0.1428571   0.2500000   0.0000000), wk =   0.0306122
        k(   55) = (   0.1428571   0.2857143   0.0000000), wk =   0.0306122
        k(   56) = (   0.1428571   0.3214286   0.0000000), wk =   0.0306122
        k(   57) = (   0.1428571   0.3571429   0.0000000), wk =   0.0306122
        k(   58) = (   0.1428571   0.3928571   0.0000000), wk =   0.0306122
        k(   59) = (   0.1428571   0.4285714   0.0000000), wk =   0.0153061
        k(   60) = (   0.1785714   0.1785714   0.0000000), wk =   0.0153061
        k(   61) = (   0.1785714   0.2142857   0.0000000), wk =   0.0306122
        k(   62) = (   0.1785714   0.2500000   0.0000000), wk =   0.0306122
        k(   63) = (   0.1785714   0.2857143   0.0000000), wk =   0.0306122
        k(   64) = (   0.1785714   0.3214286   0.0000000), wk =   0.0306122
        k(   65) = (   0.1785714   0.3571429   0.0000000), wk =   0.0306122
        k(   66) = (   0.1785714   0.3928571   0.0000000), wk =   0.0306122
        k(   67) = (   0.2142857   0.2142857   0.0000000), wk =   0.0153061
        k(   68) = (   0.2142857   0.2500000   0.0000000), wk =   0.0306122
        k(   69) = (   0.2142857   0.2857143   0.0000000), wk =   0.0306122
        k(   70) = (   0.2142857   0.3214286   0.0000000), wk =   0.0306122
        k(   71) = (   0.2142857   0.3571429   0.0000000), wk =   0.0306122
        k(   72) = (   0.2142857   0.3928571   0.0000000), wk =   0.0153061
        k(   73) = (   0.2500000   0.2500000   0.0000000), wk =   0.0153061
        k(   74) = (   0.2500000   0.2857143   0.0000000), wk =   0.0306122
        k(   75) = (   0.2500000   0.3214286   0.0000000), wk =   0.0306122
        k(   76) = (   0.2500000   0.3571429   0.0000000), wk =   0.0306122
        k(   77) = (   0.2857143   0.2857143   0.0000000), wk =   0.0153061
        k(   78) = (   0.2857143   0.3214286   0.0000000), wk =   0.0306122
        k(   79) = (   0.2857143   0.3571429   0.0000000), wk =   0.0153061
        k(   80) = (   0.3214286   0.3214286   0.0000000), wk =   0.0153061

     Dense  grid:    32597 G-vectors     FFT dimensions: (  24,  24, 144)

     Dynamical RAM for                 wfc:       0.50 MB

     Dynamical RAM for     wfc (w. buffer):      40.15 MB

     Dynamical RAM for           str. fact:       0.50 MB

     Dynamical RAM for           local pot:       0.00 MB

     Dynamical RAM for          nlocal pot:       0.99 MB

     Dynamical RAM for                qrad:       0.36 MB

     Dynamical RAM for          rho,v,vnew:       3.39 MB

     Dynamical RAM for               rhoin:       1.13 MB

     Dynamical RAM for            rho*nmix:       7.96 MB

     Dynamical RAM for           G-vectors:       2.11 MB

     Dynamical RAM for          h,s,v(r/c):       0.01 MB

     Dynamical RAM for          <psi|beta>:       0.00 MB

     Dynamical RAM for                 psi:       0.99 MB

     Dynamical RAM for                hpsi:       0.99 MB

     Dynamical RAM for      wfcinit/wfcrot:       0.99 MB

     Estimated static dynamical RAM per process >      60.75 MB

     Estimated max dynamical RAM per process >      62.75 MB

     Initial potential from superposition of free atoms

     starting charge    7.99992, renormalised to    8.00000

     negative rho (up, down):  2.379E-05 0.000E+00
     Starting wfcs are    8 randomized atomic wfcs

     total cpu time spent up to now is        2.6 secs

     Self-consistent Calculation

     iteration #  1     ecut=    60.00 Ry     beta= 0.70
     Davidson diagonalization with overlap
     ethr =  1.00E-02,  avg # of iterations =  6.1

     negative rho (up, down):  4.127E-07 0.000E+00

     total cpu time spent up to now is       23.5 secs

     total energy              =     -24.08177070 Ry
     estimated scf accuracy    <       0.21133468 Ry

     iteration #  2     ecut=    60.00 Ry     beta= 0.70
     Davidson diagonalization with overlap
     ethr =  2.64E-03,  avg # of iterations =  3.9

     negative rho (up, down):  2.200E-08 0.000E+00

     total cpu time spent up to now is       35.7 secs

     total energy              =     -24.11528988 Ry
     estimated scf accuracy    <       0.00218263 Ry

     iteration #  3     ecut=    60.00 Ry     beta= 0.70
     Davidson diagonalization with overlap
     c_bands:  1 eigenvalues not converged
     c_bands:  1 eigenvalues not converged
     ethr =  2.73E-05,  avg # of iterations = 10.4

     total cpu time spent up to now is       58.1 secs

     total energy              =     -24.11572718 Ry
     estimated scf accuracy    <       0.00013720 Ry

     iteration #  4     ecut=    60.00 Ry     beta= 0.70
     Davidson diagonalization with overlap
     ethr =  1.72E-06,  avg # of iterations =  4.6

     total cpu time spent up to now is       72.0 secs

     total energy              =     -24.11574006 Ry
     estimated scf accuracy    <       0.00000303 Ry

     iteration #  5     ecut=    60.00 Ry     beta= 0.70
     Davidson diagonalization with overlap
     ethr =  3.79E-08,  avg # of iterations =  2.9

     total cpu time spent up to now is       85.1 secs

     End of self-consistent calculation

          k = 0.0000 0.0000 0.0000 (  4053 PWs)   bands (ev):

   -21.3550  -9.6641  -4.9078  -4.9078   1.4502   2.5071   3.0004   4.9283

     occupation numbers 
     1.0000   1.0000   1.0000   1.0000   0.0000   0.0000   0.0000   0.0000

          k = 0.0000 0.0412 0.0000 (  4067 PWs)   bands (ev):

   -21.3249  -9.6277  -5.0303  -4.9753   1.4912   2.5487   3.0425   4.9694

     occupation numbers 
     1.0000   1.0000   1.0000   1.0000   0.0000   0.0000   0.0000   0.0000

          k = 0.0000 0.0825 0.0000 (  4064 PWs)   bands (ev):

   -21.2342  -9.5173  -5.3871  -5.1671   1.6145   2.6734   3.1689   5.0936

     occupation numbers 
     1.0000   1.0000   1.0000   1.0000   0.0000   0.0000   0.0000   0.0000

          k = 0.0000 0.1237 0.0000 (  4068 PWs)   bands (ev):

   -21.0834  -9.3344  -5.9411  -5.4569   1.8201   2.8811   3.3794   5.2996

     occupation numbers 
     1.0000   1.0000   1.0000   1.0000   0.0000   0.0000   0.0000   0.0000

          k = 0.0000 0.1650 0.0000 (  4070 PWs)   bands (ev):

   -20.8726  -9.0800  -6.6466  -5.8105   2.1076   3.1713   3.6743   5.5870

     occupation numbers 
     1.0000   1.0000   1.0000   1.0000   0.0000   0.0000   0.0000   0.0000

          k = 0.0000 0.2062 0.0000 (  4070 PWs)   bands (ev):

   -20.6021  -8.7551  -7.4614  -6.1965   2.4773   3.5433   4.0533   5.9531

     occupation numbers 
     1.0000   1.0000   1.0000   1.0000   0.0000   0.0000   0.0000   0.0000

          k = 0.0000 0.2474 0.0000 (  4072 PWs)   bands (ev):

   -20.2729  -8.3619  -8.3467  -6.5879   2.9287   3.9944   4.5166   6.2813

     occupation numbers 
     1.0000   1.0000   1.0000   1.0000   0.0000   0.0000   0.0000   0.0000

          k = 0.0000 0.2887 0.0000 (  4058 PWs)   bands (ev):

   -19.8852  -9.2741  -7.9030  -6.9650   3.4613   4.5076   5.0629   5.4470

     occupation numbers 
     1.0000   1.0000   1.0000   1.0000   0.0000   0.0000   0.0000   0.0000

          k = 0.0000 0.3299 0.0000 (  4060 PWs)   bands (ev):

   -19.4403 -10.2201  -7.3841  -7.3129   4.0741   4.3647   5.2156   5.6895

     occupation numbers 
     1.0000   1.0000   1.0000   1.0000   0.0000   0.0000   0.0000   0.0000

          k = 0.0000 0.3712 0.0000 (  4066 PWs)   bands (ev):

   -18.9400 -11.1668  -7.6213  -6.8120   3.3839   4.7645   5.8845   6.1139

     occupation numbers 
     1.0000   1.0000   1.0000   1.0000   0.0000   0.0000   0.0000   0.0000

          k = 0.0000 0.4124 0.0000 (  4070 PWs)   bands (ev):

   -18.3855 -12.1002  -7.8820  -6.1989   2.3924   5.5172   6.0366   6.6570

     occupation numbers 
     1.0000   1.0000   1.0000   1.0000   0.0000   0.0000   0.0000   0.0000

          k = 0.0000 0.4536 0.0000 (  4084 PWs)   bands (ev):

   -17.7804 -13.0087  -8.0898  -5.5678   1.4496   5.8792   6.4349   7.5088

     occupation numbers 
     1.0000   1.0000   1.0000   1.0000   0.0000   0.0000   0.0000   0.0000

          k = 0.0000 0.4949 0.0000 (  4056 PWs)   bands (ev):

   -17.1310 -13.8777  -8.2400  -4.9628   0.6169   5.8296   7.3422   8.4330

     occupation numbers 
     1.0000   1.0000   1.0000   1.0000   0.0000   0.0000   0.0000   0.0000

          k = 0.0000 0.5361 0.0000 (  4062 PWs)   bands (ev):

   -16.4627 -14.6799  -8.3318  -4.4827  -0.0049   5.7902   8.3371   9.4170

     occupation numbers 
     1.0000   1.0000   1.0000   1.0000   0.0000   0.0000   0.0000   0.0000

          k = 0.0000-0.5774 0.0000 (  4104 PWs)   bands (ev):

   -16.0110 -15.1776  -8.3630  -4.2889  -0.2480   5.7759   9.3585   9.4430

     occupation numbers 
     1.0000   1.0000   1.0000   1.0000   0.0000   0.0000   0.0000   0.0000

          k = 0.0357 0.0619 0.0000 (  4053 PWs)   bands (ev):

   -21.2644  -9.5539  -5.2648  -5.1098   1.5734   2.6319   3.1267   5.0521

     occupation numbers 
     1.0000   1.0000   1.0000   1.0000   0.0000   0.0000   0.0000   0.0000

          k = 0.0357 0.1031 0.0000 (  4071 PWs)   bands (ev):

   -21.1437  -9.4075  -5.7084  -5.3638   1.7378   2.7981   3.2951   5.2170

     occupation numbers 
     1.0000   1.0000   1.0000   1.0000   0.0000   0.0000   0.0000   0.0000

          k = 0.0357 0.1443 0.0000 (  4057 PWs)   bands (ev):

   -20.9628  -9.1888  -6.3235  -5.6989   1.9844   3.0471   3.5479   5.4639

     occupation numbers 
     1.0000   1.0000   1.0000   1.0000   0.0000   0.0000   0.0000   0.0000

          k = 0.0357 0.1856 0.0000 (  4069 PWs)   bands (ev):

   -20.7223  -8.8992  -7.0718  -6.0813   2.3132   3.3783   3.8849   5.7915

     occupation numbers 
     1.0000   1.0000   1.0000   1.0000   0.0000   0.0000   0.0000   0.0000

          k = 0.0357 0.2268 0.0000 (  4068 PWs)   bands (ev):

   -20.4224  -8.5399  -7.9124  -6.4798   2.7238   3.7904   4.3062   6.1907

     occupation numbers 
     1.0000   1.0000   1.0000   1.0000   0.0000   0.0000   0.0000   0.0000

          k = 0.0357 0.2681 0.0000 (  4062 PWs)   bands (ev):

   -20.0639  -8.8119  -8.1135  -6.8711   3.2159   4.2780   4.8112   5.8667

     occupation numbers 
     1.0000   1.0000   1.0000   1.0000   0.0000   0.0000   0.0000   0.0000

          k = 0.0357 0.3093 0.0000 (  4062 PWs)   bands (ev):

   -19.6477  -9.7439  -7.6243  -7.2388   3.7889   4.6968   5.0635   5.3994

     occupation numbers 
     1.0000   1.0000   1.0000   1.0000   0.0000   0.0000   0.0000   0.0000

          k = 0.0357 0.3505 0.0000 (  4067 PWs)   bands (ev):

   -19.1751 -10.6869  -7.5700  -7.0779   3.8619   4.4413   5.5584   6.0583

     occupation numbers 
     1.0000   1.0000   1.0000   1.0000   0.0000   0.0000   0.0000   0.0000

          k = 0.0357 0.3918 0.0000 (  4072 PWs)   bands (ev):

   -18.6476 -11.6246  -7.8567  -6.4833   2.8697   5.1690   6.2026   6.2871

     occupation numbers 
     1.0000   1.0000   1.0000   1.0000   0.0000   0.0000   0.0000   0.0000

          k = 0.0357 0.4330 0.0000 (  4066 PWs)   bands (ev):

   -18.0676 -12.5439  -8.0920  -5.8572   1.9016   5.9098   6.1772   7.0992

     occupation numbers 
     1.0000   1.0000   1.0000   1.0000   0.0000   0.0000   0.0000   0.0000

          k = 0.0357 0.4743 0.0000 (  4078 PWs)   bands (ev):

   -17.4395 -13.4327  -8.2724  -5.2316   1.0073   5.9897   6.9055   7.9859

     occupation numbers 
     1.0000   1.0000   1.0000   1.0000   0.0000   0.0000   0.0000   0.0000

          k = 0.0357 0.5155 0.0000 (  4069 PWs)   bands (ev):

   -16.7753 -14.2731  -8.3938  -4.6721   0.2646   5.9416   7.8598   8.9379

     occupation numbers 
     1.0000   1.0000   1.0000   1.0000   0.0000   0.0000   0.0000   0.0000

          k = 0.0357 0.5567 0.0000 (  4077 PWs)   bands (ev):

   -16.1426 -14.9951  -8.4548  -4.3118  -0.1900   5.9146   8.8879   9.9807

     occupation numbers 
     1.0000   1.0000   1.0000   1.0000   0.0000   0.0000   0.0000   0.0000

          k = 0.0714 0.1237 0.0000 (  4077 PWs)   bands (ev):

   -20.9930  -9.2251  -6.1903  -5.6866   1.9434   3.0056   3.5060   5.4232

     occupation numbers 
     1.0000   1.0000   1.0000   1.0000   0.0000   0.0000   0.0000   0.0000

          k = 0.0714 0.1650 0.0000 (  4071 PWs)   bands (ev):

   -20.7824  -8.9712  -6.8156  -6.0833   2.2311   3.2957   3.8008   5.7103

     occupation numbers 
     1.0000   1.0000   1.0000   1.0000   0.0000   0.0000   0.0000   0.0000

          k = 0.0714 0.2062 0.0000 (  4067 PWs)   bands (ev):

   -20.5123  -8.6471  -7.5606  -6.5068   2.6010   3.6675   4.1800   6.0771

     occupation numbers 
     1.0000   1.0000   1.0000   1.0000   0.0000   0.0000   0.0000   0.0000

          k = 0.0714 0.2474 0.0000 (  4061 PWs)   bands (ev):

   -20.1833  -8.3936  -8.2547  -6.9262   3.0526   4.1190   4.6435   6.1831

     occupation numbers 
     1.0000   1.0000   1.0000   1.0000   0.0000   0.0000   0.0000   0.0000

          k = 0.0714 0.2887 0.0000 (  4062 PWs)   bands (ev):

   -19.7963  -9.2831  -7.7972  -7.3226   3.5854   4.6306   5.1905   5.3022

     occupation numbers 
     1.0000   1.0000   1.0000   1.0000   0.0000   0.0000   0.0000   0.0000

          k = 0.0714 0.3299 0.0000 (  4069 PWs)   bands (ev):

   -19.3523 -10.2024  -7.6834  -7.2791   4.1986   4.2772   5.3091   5.8203

     occupation numbers 
     1.0000   1.0000   1.0000   1.0000   0.0000   0.0000   0.0000   0.0000

          k = 0.0714 0.3712 0.0000 (  4067 PWs)   bands (ev):

   -18.8526 -11.1295  -7.9998  -6.7078   3.3085   4.8907   5.9917   6.5063

     occupation numbers 
     1.0000   1.0000   1.0000   1.0000   0.0000   0.0000   0.0000   0.0000

          k = 0.0714 0.4124 0.0000 (  4059 PWs)   bands (ev):

   -18.2991 -12.0491  -8.2652  -6.0949   2.3388   5.6564   6.5417   6.7622

     occupation numbers 
     1.0000   1.0000   1.0000   1.0000   0.0000   0.0000   0.0000   0.0000

          k = 0.0714 0.4536 0.0000 (  4062 PWs)   bands (ev):

   -17.6955 -12.9468  -8.4756  -5.4636   1.4131   6.3541   6.6060   7.6072

     occupation numbers 
     1.0000   1.0000   1.0000   1.0000   0.0000   0.0000   0.0000   0.0000

          k = 0.0714 0.4949 0.0000 (  4075 PWs)   bands (ev):

   -17.0484 -13.8090  -8.6280  -4.8584   0.5894   6.3538   7.4620   8.5176

     occupation numbers 
     1.0000   1.0000   1.0000   1.0000   0.0000   0.0000   0.0000   0.0000

          k = 0.0714 0.5361 0.0000 (  4079 PWs)   bands (ev):

   -16.3831 -14.6051  -8.7203  -4.3746  -0.0284   6.3160   8.4515   9.4713

     occupation numbers 
     1.0000   1.0000   1.0000   1.0000   0.0000   0.0000   0.0000   0.0000

          k = 0.0714 0.5774 0.0000 (  4064 PWs)   bands (ev):

   -15.9345 -15.0972  -8.7508  -4.1764  -0.2711   6.3025   9.4626   9.5544

     occupation numbers 
     1.0000   1.0000   1.0000   1.0000   0.0000   0.0000   0.0000   0.0000

          k = 0.1071 0.1856 0.0000 (  4081 PWs)   bands (ev):

   -20.5424  -8.6832  -7.4080  -6.5527   2.5601   3.6265   4.1380   6.0380

     occupation numbers 
     1.0000   1.0000   1.0000   1.0000   0.0000   0.0000   0.0000   0.0000

          k = 0.1071 0.2268 0.0000 (  4061 PWs)   bands (ev):

   -20.2431  -8.3255  -8.1046  -7.0382   2.9710   4.0386   4.5594   6.3657

     occupation numbers 
     1.0000   1.0000   1.0000   1.0000   0.0000   0.0000   0.0000   0.0000

          k = 0.1071 0.2681 0.0000 (  4069 PWs)   bands (ev):

   -19.8856  -8.8945  -7.9016  -7.4961   3.4634   4.5275   5.0651   5.5331

     occupation numbers 
     1.0000   1.0000   1.0000   1.0000   0.0000   0.0000   0.0000   0.0000

          k = 0.1071 0.3093 0.0000 (  4068 PWs)   bands (ev):

   -19.4707  -9.7493  -7.9074  -7.4144   4.0366   4.5974   5.1343   5.6543

     occupation numbers 
     1.0000   1.0000   1.0000   1.0000   0.0000   0.0000   0.0000   0.0000

          k = 0.1071 0.3505 0.0000 (  4059 PWs)   bands (ev):

   -18.9995 -10.6391  -8.2663  -6.8697   3.6745   4.6898   5.7729   6.3265

     occupation numbers 
     1.0000   1.0000   1.0000   1.0000   0.0000   0.0000   0.0000   0.0000

          k = 0.1071 0.3918 0.0000 (  4048 PWs)   bands (ev):

   -18.4739 -11.5398  -8.5691  -6.2768   2.7287   5.4213   6.5010   7.0578

     occupation numbers 
     1.0000   1.0000   1.0000   1.0000   0.0000   0.0000   0.0000   0.0000

          k = 0.1071 0.4330 0.0000 (  4064 PWs)   bands (ev):

   -17.8966 -12.4336  -8.8148  -5.6520   1.8005   6.2259   7.1014   7.3016

     occupation numbers 
     1.0000   1.0000   1.0000   1.0000   0.0000   0.0000   0.0000   0.0000

          k = 0.1071 0.4743 0.0000 (  4065 PWs)   bands (ev):

   -17.2720 -13.3033  -9.0009  -5.0244   0.9355   6.9460   7.1900   8.1644

     occupation numbers 
     1.0000   1.0000   1.0000   1.0000   0.0000   0.0000   0.0000   0.0000

          k = 0.1071 0.5155 0.0000 (  4062 PWs)   bands (ev):

   -16.6126 -14.1299  -9.1255  -4.4592   0.2064   6.9430   8.0940   9.0657

     occupation numbers 
     1.0000   1.0000   1.0000   1.0000   0.0000   0.0000   0.0000   0.0000

          k = 0.1071 0.5567 0.0000 (  4066 PWs)   bands (ev):

   -15.9871 -14.8403  -9.1881  -4.0900  -0.2464   6.9175   9.1095  10.1816

     occupation numbers 
     1.0000   1.0000   1.0000   1.0000   0.0000   0.0000   0.0000   0.0000

          k = 0.1429 0.2474 0.0000 (  4061 PWs)   bands (ev):

   -19.9154  -8.7187  -7.9363  -7.6022   3.4227   4.4905   5.0232   5.6189

     occupation numbers 
     1.0000   1.0000   1.0000   1.0000   0.0000   0.0000   0.0000   0.0000

          k = 0.1429 0.2887 0.0000 (  4070 PWs)   bands (ev):

   -19.5301  -9.4230  -8.1259  -7.4823   3.9555   4.7891   5.0288   5.5708

     occupation numbers 
     1.0000   1.0000   1.0000   1.0000   0.0000   0.0000   0.0000   0.0000

          k = 0.1429 0.3299 0.0000 (  4064 PWs)   bands (ev):

   -19.0881 -10.2110  -8.5728  -6.9679   3.9246   4.5687   5.6349   6.2024

     occupation numbers 
     1.0000   1.0000   1.0000   1.0000   0.0000   0.0000   0.0000   0.0000

          k = 0.1429 0.3712 0.0000 (  4055 PWs)   bands (ev):

   -18.5910 -11.0522  -8.9410  -6.4000   3.0288   5.2612   6.3198   6.9169

     occupation numbers 
     1.0000   1.0000   1.0000   1.0000   0.0000   0.0000   0.0000   0.0000

          k = 0.1429 0.4124 0.0000 (  4056 PWs)   bands (ev):

   -18.0410 -11.9149  -9.2367  -5.7899   2.1300   6.0310   7.0738   7.7027

     occupation numbers 
     1.0000   1.0000   1.0000   1.0000   0.0000   0.0000   0.0000   0.0000

          k = 0.1429 0.4536 0.0000 (  4052 PWs)   bands (ev):

   -17.4419 -12.7742  -9.4645  -5.1583   1.2607   6.8735   7.8379   7.8844

     occupation numbers 
     1.0000   1.0000   1.0000   1.0000   0.0000   0.0000   0.0000   0.0000

          k = 0.1429 0.4949 0.0000 (  4050 PWs)   bands (ev):

   -16.8009 -13.6089  -9.6266  -4.5471   0.4720   7.6851   7.8788   8.7214

     occupation numbers 
     1.0000   1.0000   1.0000   1.0000   0.0000   0.0000   0.0000   0.0000

          k = 0.1429 0.5361 0.0000 (  4062 PWs)   bands (ev):

   -16.1444 -14.3850  -9.7240  -4.0500  -0.1357   7.7096   8.7932   9.4938

     occupation numbers 
     1.0000   1.0000   1.0000   1.0000   0.0000   0.0000   0.0000   0.0000

          k = 0.1429 0.5774 0.0000 (  4076 PWs)   bands (ev):

   -15.7060 -14.8637  -9.7567  -3.8428  -0.3807   7.6970   9.7665   9.8825

     occupation numbers 
     1.0000   1.0000   1.0000   1.0000   0.0000   0.0000   0.0000   0.0000

          k = 0.1786 0.3093 0.0000 (  4060 PWs)   bands (ev):

   -19.1177 -10.0099  -8.7364  -7.0007   4.0153   4.5283   5.5868   6.1607

     occupation numbers 
     1.0000   1.0000   1.0000   1.0000   0.0000   0.0000   0.0000   0.0000

          k = 0.1786 0.3505 0.0000 (  4052 PWs)   bands (ev):

   -18.6496 -10.6870  -9.2546  -6.4620   3.1961   5.1806   6.2259   6.8345

     occupation numbers 
     1.0000   1.0000   1.0000   1.0000   0.0000   0.0000   0.0000   0.0000

          k = 0.1786 0.3918 0.0000 (  4060 PWs)   bands (ev):

   -18.1282 -11.4489  -9.6572  -5.8742   2.3558   5.9110   6.9312   7.5908

     occupation numbers 
     1.0000   1.0000   1.0000   1.0000   0.0000   0.0000   0.0000   0.0000

          k = 0.1786 0.4330 0.0000 (  4051 PWs)   bands (ev):

   -17.5561 -12.2553  -9.9573  -5.2517   1.5180   6.7169   7.6860   8.4259

     occupation numbers 
     1.0000   1.0000   1.0000   1.0000   0.0000   0.0000   0.0000   0.0000

          k = 0.1786 0.4743 0.0000 (  4047 PWs)   bands (ev):

   -16.9389 -13.0698 -10.1727  -4.6213   0.7170   7.5932   8.4504   8.6992

     occupation numbers 
     1.0000   1.0000   1.0000   1.0000   0.0000   0.0000   0.0000   0.0000

          k = 0.1786 0.5155 0.0000 (  4068 PWs)   bands (ev):

   -16.2896 -13.8600 -10.3132  -4.0422   0.0187   8.4946   8.6870   9.1202

     occupation numbers 
     1.0000   1.0000   1.0000   1.0000   0.0000   0.0000   0.0000   0.0000

          k = 0.1786 0.5567 0.0000 (  4060 PWs)   bands (ev):

   -15.6775 -14.5445 -10.3822  -3.6508  -0.4328   8.5989   9.5056   9.5441

     occupation numbers 
     1.0000   1.0000   1.0000   1.0000   0.0000   0.0000   0.0000   0.0000

          k = 0.2143 0.3712 0.0000 (  4056 PWs)   bands (ev):

   -18.1572 -11.2210  -9.8714  -5.9026   2.4371   5.8708   6.8822   7.5495

     occupation numbers 
     1.0000   1.0000   1.0000   1.0000   0.0000   0.0000   0.0000   0.0000

          k = 0.2143 0.4124 0.0000 (  4054 PWs)   bands (ev):

   -17.6136 -11.8533 -10.3516  -5.2997   1.6618   6.6370   7.5816   8.3475

     occupation numbers 
     1.0000   1.0000   1.0000   1.0000   0.0000   0.0000   0.0000   0.0000

          k = 0.2143 0.4536 0.0000 (  4044 PWs)   bands (ev):

   -17.0226 -12.5713 -10.6843  -4.6699   0.8917   7.4753   8.2721   9.2242

     occupation numbers 
     1.0000   1.0000   1.0000   1.0000   0.0000   0.0000   0.0000   0.0000

          k = 0.2143 0.4949 0.0000 (  4042 PWs)   bands (ev):

   -16.3926 -13.3241 -10.8988  -4.0484   0.1656   8.3778   8.8307   9.6231

     occupation numbers 
     1.0000   1.0000   1.0000   1.0000   0.0000   0.0000   0.0000   0.0000

          k = 0.2143 0.5361 0.0000 (  4051 PWs)   bands (ev):

   -15.7507 -14.0506 -11.0203  -3.5217  -0.4260   9.1199   9.3145   9.5961

     occupation numbers 
     1.0000   1.0000   1.0000   1.0000   0.0000   0.0000   0.0000   0.0000

          k = 0.2143 0.5774 0.0000 (  4056 PWs)   bands (ev):

   -15.3255 -14.5056 -11.0599  -3.2897  -0.6801   9.1912   9.5443  10.2391

     occupation numbers 
     1.0000   1.0000   1.0000   1.0000   0.0000   0.0000   0.0000   0.0000

          k = 0.2500 0.4330 0.0000 (  4056 PWs)   bands (ev):

   -17.0508 -12.3187 -10.9428  -4.6873   0.9554   7.4353   8.2089   9.1856

     occupation numbers 
     1.0000   1.0000   1.0000   1.0000   0.0000   0.0000   0.0000   0.0000

          k = 0.2500 0.4743 0.0000 (  4037 PWs)   bands (ev):

   -16.4455 -12.8943 -11.3567  -4.0554   0.2542   8.2992   8.6701  10.1012

     occupation numbers 
     1.0000   1.0000   1.0000   1.0000   0.0000   0.0000   0.0000   0.0000

          k = 0.2500 0.5155 0.0000 (  4036 PWs)   bands (ev):

   -15.8123 -13.5502 -11.5967  -3.4506  -0.3976   8.8492   9.2131  10.5157

     occupation numbers 
     1.0000   1.0000   1.0000   1.0000   0.0000   0.0000   0.0000   0.0000

          k = 0.2500 0.5567 0.0000 (  4038 PWs)   bands (ev):

   -15.2181 -14.1696 -11.7048  -3.0036  -0.8678   8.8721  10.1299  10.4816

     occupation numbers 
     1.0000   1.0000   1.0000   1.0000   0.0000   0.0000   0.0000   0.0000

          k = 0.2857 0.4949 0.0000 (  4046 PWs)   bands (ev):

   -15.8346 -13.2864 -11.8858  -3.4286  -0.3837   8.7523   9.1741  11.0392

     occupation numbers 
     1.0000   1.0000   1.0000   1.0000   0.0000   0.0000   0.0000   0.0000

          k = 0.2857 0.5361 0.0000 (  4041 PWs)   bands (ev):

   -15.2159 -13.7881 -12.1931  -2.8403  -0.9750   8.6879  10.0637  11.1646

     occupation numbers 
     1.0000   1.0000   1.0000   1.0000   0.0000   0.0000   0.0000   0.0000

          k = 0.2857 0.5774 0.0000 (  4042 PWs)   bands (ev):

   -14.7936 -14.1799 -12.2873  -2.5223  -1.2939   8.6501  10.7931  10.9204

     occupation numbers 
     1.0000   1.0000   1.0000   1.0019   0.0000   0.0000   0.0000   0.0000

          k = 0.3214 0.5567 0.0000 (  4042 PWs)   bands (ev):

   -14.6492 -14.1131 -12.5553  -2.2464  -1.5492   8.5668  10.8214  11.2153

     occupation numbers 
     1.0000   1.0000   1.0000   0.9981   0.0000   0.0000   0.0000   0.0000

     the Fermi energy is    -2.1217 ev

!    total energy              =     -24.11574150 Ry
     estimated scf accuracy    <       0.00000007 Ry
     smearing contrib. (-TS)   =       0.00001313 Ry
     internal energy E=F+TS    =     -24.11575463 Ry

     The total energy is F=E-TS. E is the sum of the following terms:
     one-electron contribution =    -154.91582276 Ry
     hartree contribution      =      78.91406044 Ry
     xc contribution           =      -8.55672839 Ry
     ewald contribution        =      60.44273608 Ry

     convergence has been achieved in   5 iterations

     Forces acting on atoms (cartesian axes, Ry/au):

     atom    1 type  1   force =    -0.00000000   -0.00000000    0.00000000
     atom    2 type  1   force =     0.00000000    0.00000000    0.00000000
     The non-local contrib.  to forces
     atom    1 type  1   force =     0.00000000    0.00000000   -0.00000000
     atom    2 type  1   force =     0.00000000   -0.00000000    0.00000000
     The ionic contribution  to forces
     atom    1 type  1   force =    -0.00000001    0.00000000   -0.00000000
     atom    2 type  1   force =     0.00000001   -0.00000000   -0.00000000
     The local contribution  to forces
     atom    1 type  1   force =    -0.00000000   -0.00000000    0.00000000
     atom    2 type  1   force =     0.00000001   -0.00000000    0.00000000
     The core correction contribution to forces
     atom    1 type  1   force =     0.00000000   -0.00000000    0.00000000
     atom    2 type  1   force =    -0.00000000    0.00000000    0.00000000
     The Hubbard contrib.    to forces
     atom    1 type  1   force =     0.00000000    0.00000000    0.00000000
     atom    2 type  1   force =     0.00000000    0.00000000    0.00000000
     The SCF correction term to forces
     atom    1 type  1   force =     0.00000000   -0.00000000    0.00000000
     atom    2 type  1   force =    -0.00000000    0.00000000    0.00000000

     Total force =     0.000000     Total SCF correction =     0.000000


     Computing stress (Cartesian axis) and pressure

          total   stress  (Ry/bohr**3)                   (kbar)     P=      -14.27
  -0.00010295   0.00000000   0.00000000          -15.14        0.00        0.00
   0.00000000  -0.00010295  -0.00000000            0.00      -15.14       -0.00
   0.00000000   0.00000000  -0.00008511            0.00        0.00      -12.52

     kinetic stress (kbar)   3110.89     -0.00     -0.00
                               -0.00   3110.89     -0.00
                               -0.00     -0.00   3410.43

     local   stress (kbar) -47077.77      0.00     -0.00
                                0.00 -47077.77     -0.00
                               -0.00     -0.00  48049.32

     nonloc. stress (kbar)   -377.67     -0.00      0.00
                               -0.00   -377.67      0.00
                                0.00      0.00   -316.41

     hartree stress (kbar)  22205.94      0.00     -0.00
                                0.00  22205.94      0.00
                               -0.00      0.00 -21975.60

     exc-cor stress (kbar)   -240.44      0.00      0.00
                                0.00   -240.44      0.00
                                0.00      0.00   -240.44

     corecor stress (kbar)   -469.59      0.00      0.00
                                0.00   -469.59      0.00
                                0.00      0.00   -457.44

     ewald   stress (kbar)  22833.51     -0.00     -0.00
                               -0.00  22833.51     -0.00
                               -0.00     -0.00 -28482.36

     hubbard stress (kbar)      0.00      0.00      0.00
                                0.00      0.00      0.00
                                0.00      0.00      0.00

     DFT-D   stress (kbar)      0.00      0.00      0.00
                                0.00      0.00      0.00
                                0.00      0.00      0.00

     XDM     stress (kbar)      0.00      0.00      0.00
                                0.00      0.00      0.00
                                0.00      0.00      0.00

     dft-nl  stress (kbar)      0.00      0.00      0.00
                                0.00      0.00      0.00
                                0.00      0.00      0.00

     TS-vdW  stress (kbar)      0.00      0.00      0.00
                                0.00      0.00      0.00
                                0.00      0.00      0.00



     Writing output data file ./tmp/graphene.save/

     init_run     :      5.42s CPU      2.60s WALL (       1 calls)
     electrons    :    172.74s CPU     82.48s WALL (       1 calls)
     forces       :      1.51s CPU      0.59s WALL (       1 calls)
     stress       :      8.16s CPU      4.28s WALL (       1 calls)

     Called by init_run:
     wfcinit      :      5.32s CPU      2.49s WALL (       1 calls)
     wfcinit:atom :      0.19s CPU      0.07s WALL (      80 calls)
     wfcinit:wfcr :      4.49s CPU      2.16s WALL (      80 calls)
     potinit      :      0.01s CPU      0.02s WALL (       1 calls)
     hinit0       :      0.05s CPU      0.05s WALL (       1 calls)

     Called by electrons:
     c_bands      :    167.47s CPU     77.82s WALL (       5 calls)
     sum_band     :      5.18s CPU      4.58s WALL (       5 calls)
     v_of_rho     :      0.04s CPU      0.04s WALL (       6 calls)
     v_h          :      0.01s CPU      0.01s WALL (       6 calls)
     v_xc         :      0.07s CPU      0.05s WALL (       8 calls)
     mix_rho      :      0.02s CPU      0.03s WALL (       5 calls)

     Called by c_bands:
     init_us_2    :      3.60s CPU      1.56s WALL (    1040 calls)
     cegterg      :    160.13s CPU     74.87s WALL (     400 calls)

     Called by sum_band:
     sum_band:wei :      0.02s CPU      0.01s WALL (       5 calls)
     sum_band:loo :      5.12s CPU      4.53s WALL (       5 calls)
     sum_band:buf :      0.11s CPU      0.08s WALL (     400 calls)
     sum_band:ini :      0.53s CPU      0.46s WALL (     400 calls)

     Called by *egterg:
     cdiaghg      :      2.45s CPU      0.80s WALL (    2627 calls)
     cegterg:over :      6.92s CPU      2.98s WALL (    2227 calls)
     cegterg:upda :      5.66s CPU      2.76s WALL (    2227 calls)
     cegterg:last :      5.79s CPU      2.46s WALL (    1148 calls)
     h_psi        :    139.23s CPU     66.36s WALL (    2707 calls)
     g_psi        :      1.71s CPU      0.55s WALL (    2227 calls)

     Called by h_psi:
     h_psi:calbec :     13.27s CPU      8.74s WALL (    2707 calls)
     vloc_psi     :    119.24s CPU     54.61s WALL (    2707 calls)
     add_vuspsi   :      5.58s CPU      2.58s WALL (    2707 calls)

     General routines
     calbec       :     14.30s CPU      9.22s WALL (    3107 calls)
     fft          :      0.07s CPU      0.05s WALL (      25 calls)
     ffts         :      0.01s CPU      0.01s WALL (       5 calls)
     fftw         :    100.63s CPU     47.36s WALL (   26100 calls)

     Parallel routines

     PWSCF        :   3m 8.06s CPU   1m30.15s WALL


   This run was terminated on:  12:37:20  14Feb2024            

=------------------------------------------------------------------------------=
   JOB DONE.
=------------------------------------------------------------------------------=
