
     Program PWSCF v.6.7MaX starts on 14Feb2024 at 14:51: 5 

     This program is part of the open-source Quantum ESPRESSO suite
     for quantum simulation of materials; please cite
         "P. Giannozzi et al., J. Phys.:Condens. Matter 21 395502 (2009);
         "P. Giannozzi et al., J. Phys.:Condens. Matter 29 465901 (2017);
          URL http://www.quantum-espresso.org", 
     in publications or presentations arising from this work. More details at
     http://www.quantum-espresso.org/quote

     Parallel version (MPI), running on     1 processors

     MPI processes distributed on     1 nodes
     Waiting for input...
     Reading input from standard input

     Current dimensions of program PWSCF are:
     Max number of different atomic species (ntypx) = 10
     Max number of k-points (npk) =  40000
     Max angular momentum in pseudopotentials (lmaxx) =  3
     Message from routine read_pp_mesh:
     mesh size missing, using the one in header
     Message from routine read_pp_mesh:
     mesh size missing, using the one in header

     Subspace diagonalization in iterative solution of the eigenvalue problem:
     a serial algorithm will be used


     G-vector sticks info
     --------------------
     sticks:   dense  smooth     PW     G-vecs:    dense   smooth      PW
     Sum         121     121     37                 6307     6307    1307



     bravais-lattice index     =            4
     lattice parameter (alat)  =       4.6350  a.u.
     unit-cell volume          =     517.4056 (a.u.)^3
     number of atoms/cell      =            2
     number of atomic types    =            2
     number of electrons       =         8.00
     number of Kohn-Sham states=            8
     kinetic-energy cutoff     =      20.0000  Ry
     charge density cutoff     =      80.0000  Ry
     scf convergence threshold =      1.0E-06
     mixing beta               =       0.7000
     number of iterations used =            8  plain     mixing
     Exchange-correlation= PBE
                           (   1   4   3   4   0   0   0)

     celldm(1)=   4.635000  celldm(2)=   0.000000  celldm(3)=   6.000000
     celldm(4)=   0.000000  celldm(5)=   0.000000  celldm(6)=   0.000000

     crystal axes: (cart. coord. in units of alat)
               a(1) = (   1.000000   0.000000   0.000000 )  
               a(2) = (  -0.500000   0.866025   0.000000 )  
               a(3) = (   0.000000   0.000000   6.000000 )  

     reciprocal axes: (cart. coord. in units 2 pi/alat)
               b(1) = (  1.000000  0.577350 -0.000000 )  
               b(2) = (  0.000000  1.154701  0.000000 )  
               b(3) = (  0.000000 -0.000000  0.166667 )  


     PseudoPot. # 1 for N  read from file:
     ../../../../Pseudo/PBE/N.upf
     MD5 check sum: d34365f73bb0e2ee98afc20ec3e87676
     Pseudo is Norm-conserving + core correction, Zval =  5.0
     Generated using ONCVPSP code by D. R. Hamann
     Using radial grid of 1058 points,  4 beta functions with: 
                l(1) =   0
                l(2) =   0
                l(3) =   1
                l(4) =   1

     PseudoPot. # 2 for B  read from file:
     ../../../../Pseudo/PBE/B.upf
     MD5 check sum: 72f82fc31bc892420d0cab7e25c88ab8
     Pseudo is Norm-conserving + core correction, Zval =  3.0
     Generated using ONCVPSP code by D. R. Hamann
     Using radial grid of 1534 points,  4 beta functions with: 
                l(1) =   0
                l(2) =   0
                l(3) =   1
                l(4) =   1

     atomic species   valence    mass     pseudopotential
        N              5.00    14.00670     N ( 1.00)
        B              3.00    10.80100     B ( 1.00)

     12 Sym. Ops. (no inversion) found


                                    s                        frac. trans.

      isym =  1     identity                                     

 cryst.   s( 1) = (     1          0          0      )
                  (     0          1          0      )
                  (     0          0          1      )

 cart.    s( 1) = (  1.0000000  0.0000000  0.0000000 )
                  (  0.0000000  1.0000000  0.0000000 )
                  (  0.0000000  0.0000000  1.0000000 )


      isym =  2     180 deg rotation - cart. axis [0,1,0]        

 cryst.   s( 2) = (    -1          0          0      )
                  (     1          1          0      )
                  (     0          0         -1      )

 cart.    s( 2) = ( -1.0000000  0.0000000  0.0000000 )
                  (  0.0000000  1.0000000  0.0000000 )
                  (  0.0000000  0.0000000 -1.0000000 )


      isym =  3     120 deg rotation - cryst. axis [0,0,1]       

 cryst.   s( 3) = (     0          1          0      )
                  (    -1         -1          0      )
                  (     0          0          1      )

 cart.    s( 3) = ( -0.5000000 -0.8660254  0.0000000 )
                  (  0.8660254 -0.5000000  0.0000000 )
                  (  0.0000000  0.0000000  1.0000000 )


      isym =  4     120 deg rotation - cryst. axis [0,0,-1]      

 cryst.   s( 4) = (    -1         -1          0      )
                  (     1          0          0      )
                  (     0          0          1      )

 cart.    s( 4) = ( -0.5000000  0.8660254  0.0000000 )
                  ( -0.8660254 -0.5000000  0.0000000 )
                  (  0.0000000  0.0000000  1.0000000 )


      isym =  5     180 deg rotation - cryst. axis [1,-1,0]      

 cryst.   s( 5) = (     0         -1          0      )
                  (    -1          0          0      )
                  (     0          0         -1      )

 cart.    s( 5) = (  0.5000000 -0.8660254  0.0000000 )
                  ( -0.8660254 -0.5000000  0.0000000 )
                  (  0.0000000  0.0000000 -1.0000000 )


      isym =  6     180 deg rotation - cryst. axis [2,1,0]       

 cryst.   s( 6) = (     1          1          0      )
                  (     0         -1          0      )
                  (     0          0         -1      )

 cart.    s( 6) = (  0.5000000  0.8660254  0.0000000 )
                  (  0.8660254 -0.5000000  0.0000000 )
                  (  0.0000000  0.0000000 -1.0000000 )


      isym =  7     inv. 180 deg rotation - cart. axis [0,0,1]   

 cryst.   s( 7) = (     1          0          0      )
                  (     0          1          0      )
                  (     0          0         -1      )

 cart.    s( 7) = (  1.0000000  0.0000000  0.0000000 )
                  (  0.0000000  1.0000000  0.0000000 )
                  (  0.0000000  0.0000000 -1.0000000 )


      isym =  8     inv. 180 deg rotation - cart. axis [1,0,0]   

 cryst.   s( 8) = (    -1          0          0      )
                  (     1          1          0      )
                  (     0          0          1      )

 cart.    s( 8) = ( -1.0000000  0.0000000  0.0000000 )
                  (  0.0000000  1.0000000  0.0000000 )
                  (  0.0000000  0.0000000  1.0000000 )


      isym =  9     inv.  60 deg rotation - cryst. axis [0,0,1]  

 cryst.   s( 9) = (    -1         -1          0      )
                  (     1          0          0      )
                  (     0          0         -1      )

 cart.    s( 9) = ( -0.5000000  0.8660254  0.0000000 )
                  ( -0.8660254 -0.5000000  0.0000000 )
                  (  0.0000000  0.0000000 -1.0000000 )


      isym = 10     inv.  60 deg rotation - cryst. axis [0,0,-1] 

 cryst.   s(10) = (     0          1          0      )
                  (    -1         -1          0      )
                  (     0          0         -1      )

 cart.    s(10) = ( -0.5000000 -0.8660254  0.0000000 )
                  (  0.8660254 -0.5000000  0.0000000 )
                  (  0.0000000  0.0000000 -1.0000000 )


      isym = 11     inv. 180 deg rotation - cryst. axis [0,1,0]  

 cryst.   s(11) = (     1          1          0      )
                  (     0         -1          0      )
                  (     0          0          1      )

 cart.    s(11) = (  0.5000000  0.8660254  0.0000000 )
                  (  0.8660254 -0.5000000  0.0000000 )
                  (  0.0000000  0.0000000  1.0000000 )


      isym = 12     inv. 180 deg rotation - cryst. axis [1,1,0]  

 cryst.   s(12) = (     0         -1          0      )
                  (    -1          0          0      )
                  (     0          0          1      )

 cart.    s(12) = (  0.5000000 -0.8660254  0.0000000 )
                  ( -0.8660254 -0.5000000  0.0000000 )
                  (  0.0000000  0.0000000  1.0000000 )


     point group D_3h (-62m)
     there are  6 classes
     the character table:

       E     2C3   3C2   s_h   2S3   3s_v 
A'_1   1.00  1.00  1.00  1.00  1.00  1.00
A'_2   1.00  1.00 -1.00  1.00  1.00 -1.00
E'     2.00 -1.00  0.00  2.00 -1.00  0.00
A''1   1.00  1.00  1.00 -1.00 -1.00 -1.00
A''2   1.00  1.00 -1.00 -1.00 -1.00  1.00
E''    2.00 -1.00  0.00 -2.00  1.00  0.00

     the symmetry operations in each class and the name of the first element:

     E        1
          identity                                               
     2C3      3    4
          120 deg rotation - cryst. axis [0,0,1]                 
     3C2      2    6    5
          180 deg rotation - cart. axis [0,1,0]                  
     s_h      7
          inv. 180 deg rotation - cart. axis [0,0,1]             
     2S3      9   10
          inv.  60 deg rotation - cryst. axis [0,0,1]            
     3s_v     8   11   12
          inv. 180 deg rotation - cart. axis [1,0,0]             

   Cartesian axes

     site n.     atom                  positions (alat units)
         1           B   tau(   1) = (   0.0000000   0.0000000   0.0000000  )
         2           N   tau(   2) = (  -0.0000000   0.5773503   0.0000000  )

   Crystallographic axes

     site n.     atom                  positions (cryst. coord.)
         1           B   tau(   1) = (  0.0000000  0.0000000  0.0000000  )
         2           N   tau(   2) = (  0.3333333  0.6666667  0.0000000  )

     number of k points=   102  Marzari-Vanderbilt smearing, width (Ry)=  0.0100
                       cart. coord. in units 2pi/alat
        k(    1) = (   0.0000000   0.0000000   0.0000000), wk =   0.0019531
        k(    2) = (   0.0000000   0.0360844   0.0000000), wk =   0.0117188
        k(    3) = (   0.0000000   0.0721688   0.0000000), wk =   0.0117188
        k(    4) = (   0.0000000   0.1082532   0.0000000), wk =   0.0117188
        k(    5) = (   0.0000000   0.1443376   0.0000000), wk =   0.0117188
        k(    6) = (   0.0000000   0.1804220   0.0000000), wk =   0.0117188
        k(    7) = (   0.0000000   0.2165064   0.0000000), wk =   0.0117188
        k(    8) = (   0.0000000   0.2525907   0.0000000), wk =   0.0117188
        k(    9) = (   0.0000000   0.2886751   0.0000000), wk =   0.0117188
        k(   10) = (   0.0000000   0.3247595   0.0000000), wk =   0.0117188
        k(   11) = (   0.0000000   0.3608439   0.0000000), wk =   0.0117188
        k(   12) = (   0.0000000   0.3969283   0.0000000), wk =   0.0117188
        k(   13) = (   0.0000000   0.4330127   0.0000000), wk =   0.0117188
        k(   14) = (   0.0000000   0.4690971   0.0000000), wk =   0.0117188
        k(   15) = (   0.0000000   0.5051815   0.0000000), wk =   0.0117188
        k(   16) = (   0.0000000   0.5412659   0.0000000), wk =   0.0117188
        k(   17) = (   0.0000000  -0.5773503   0.0000000), wk =   0.0058594
        k(   18) = (   0.0312500   0.0541266   0.0000000), wk =   0.0117188
        k(   19) = (   0.0312500   0.0902110   0.0000000), wk =   0.0234375
        k(   20) = (   0.0312500   0.1262954   0.0000000), wk =   0.0234375
        k(   21) = (   0.0312500   0.1623798   0.0000000), wk =   0.0234375
        k(   22) = (   0.0312500   0.1984642   0.0000000), wk =   0.0234375
        k(   23) = (   0.0312500   0.2345485   0.0000000), wk =   0.0234375
        k(   24) = (   0.0312500   0.2706329   0.0000000), wk =   0.0234375
        k(   25) = (   0.0312500   0.3067173   0.0000000), wk =   0.0234375
        k(   26) = (   0.0312500   0.3428017   0.0000000), wk =   0.0234375
        k(   27) = (   0.0312500   0.3788861   0.0000000), wk =   0.0234375
        k(   28) = (   0.0312500   0.4149705   0.0000000), wk =   0.0234375
        k(   29) = (   0.0312500   0.4510549   0.0000000), wk =   0.0234375
        k(   30) = (   0.0312500   0.4871393   0.0000000), wk =   0.0234375
        k(   31) = (   0.0312500   0.5232237   0.0000000), wk =   0.0234375
        k(   32) = (   0.0312500   0.5593081   0.0000000), wk =   0.0234375
        k(   33) = (   0.0625000   0.1082532   0.0000000), wk =   0.0117188
        k(   34) = (   0.0625000   0.1443376   0.0000000), wk =   0.0234375
        k(   35) = (   0.0625000   0.1804220   0.0000000), wk =   0.0234375
        k(   36) = (   0.0625000   0.2165064   0.0000000), wk =   0.0234375
        k(   37) = (   0.0625000   0.2525907   0.0000000), wk =   0.0234375
        k(   38) = (   0.0625000   0.2886751   0.0000000), wk =   0.0234375
        k(   39) = (   0.0625000   0.3247595   0.0000000), wk =   0.0234375
        k(   40) = (   0.0625000   0.3608439   0.0000000), wk =   0.0234375
        k(   41) = (   0.0625000   0.3969283   0.0000000), wk =   0.0234375
        k(   42) = (   0.0625000   0.4330127   0.0000000), wk =   0.0234375
        k(   43) = (   0.0625000   0.4690971   0.0000000), wk =   0.0234375
        k(   44) = (   0.0625000   0.5051815   0.0000000), wk =   0.0234375
        k(   45) = (   0.0625000   0.5412659   0.0000000), wk =   0.0234375
        k(   46) = (   0.0625000   0.5773503   0.0000000), wk =   0.0117188
        k(   47) = (   0.0937500   0.1623798   0.0000000), wk =   0.0117188
        k(   48) = (   0.0937500   0.1984642   0.0000000), wk =   0.0234375
        k(   49) = (   0.0937500   0.2345485   0.0000000), wk =   0.0234375
        k(   50) = (   0.0937500   0.2706329   0.0000000), wk =   0.0234375
        k(   51) = (   0.0937500   0.3067173   0.0000000), wk =   0.0234375
        k(   52) = (   0.0937500   0.3428017   0.0000000), wk =   0.0234375
        k(   53) = (   0.0937500   0.3788861   0.0000000), wk =   0.0234375
        k(   54) = (   0.0937500   0.4149705   0.0000000), wk =   0.0234375
        k(   55) = (   0.0937500   0.4510549   0.0000000), wk =   0.0234375
        k(   56) = (   0.0937500   0.4871393   0.0000000), wk =   0.0234375
        k(   57) = (   0.0937500   0.5232237   0.0000000), wk =   0.0234375
        k(   58) = (   0.0937500   0.5593081   0.0000000), wk =   0.0234375
        k(   59) = (   0.1250000   0.2165064   0.0000000), wk =   0.0117188
        k(   60) = (   0.1250000   0.2525907   0.0000000), wk =   0.0234375
        k(   61) = (   0.1250000   0.2886751   0.0000000), wk =   0.0234375
        k(   62) = (   0.1250000   0.3247595   0.0000000), wk =   0.0234375
        k(   63) = (   0.1250000   0.3608439   0.0000000), wk =   0.0234375
        k(   64) = (   0.1250000   0.3969283   0.0000000), wk =   0.0234375
        k(   65) = (   0.1250000   0.4330127   0.0000000), wk =   0.0234375
        k(   66) = (   0.1250000   0.4690971   0.0000000), wk =   0.0234375
        k(   67) = (   0.1250000   0.5051815   0.0000000), wk =   0.0234375
        k(   68) = (   0.1250000   0.5412659   0.0000000), wk =   0.0234375
        k(   69) = (   0.1250000   0.5773503   0.0000000), wk =   0.0117188
        k(   70) = (   0.1562500   0.2706329   0.0000000), wk =   0.0117188
        k(   71) = (   0.1562500   0.3067173   0.0000000), wk =   0.0234375
        k(   72) = (   0.1562500   0.3428017   0.0000000), wk =   0.0234375
        k(   73) = (   0.1562500   0.3788861   0.0000000), wk =   0.0234375
        k(   74) = (   0.1562500   0.4149705   0.0000000), wk =   0.0234375
        k(   75) = (   0.1562500   0.4510549   0.0000000), wk =   0.0234375
        k(   76) = (   0.1562500   0.4871393   0.0000000), wk =   0.0234375
        k(   77) = (   0.1562500   0.5232237   0.0000000), wk =   0.0234375
        k(   78) = (   0.1562500   0.5593081   0.0000000), wk =   0.0234375
        k(   79) = (   0.1875000   0.3247595   0.0000000), wk =   0.0117188
        k(   80) = (   0.1875000   0.3608439   0.0000000), wk =   0.0234375
        k(   81) = (   0.1875000   0.3969283   0.0000000), wk =   0.0234375
        k(   82) = (   0.1875000   0.4330127   0.0000000), wk =   0.0234375
        k(   83) = (   0.1875000   0.4690971   0.0000000), wk =   0.0234375
        k(   84) = (   0.1875000   0.5051815   0.0000000), wk =   0.0234375
        k(   85) = (   0.1875000   0.5412659   0.0000000), wk =   0.0234375
        k(   86) = (   0.1875000   0.5773503   0.0000000), wk =   0.0117188
        k(   87) = (   0.2187500   0.3788861   0.0000000), wk =   0.0117188
        k(   88) = (   0.2187500   0.4149705   0.0000000), wk =   0.0234375
        k(   89) = (   0.2187500   0.4510549   0.0000000), wk =   0.0234375
        k(   90) = (   0.2187500   0.4871393   0.0000000), wk =   0.0234375
        k(   91) = (   0.2187500   0.5232237   0.0000000), wk =   0.0234375
        k(   92) = (   0.2187500   0.5593081   0.0000000), wk =   0.0234375
        k(   93) = (   0.2500000   0.4330127   0.0000000), wk =   0.0117188
        k(   94) = (   0.2500000   0.4690971   0.0000000), wk =   0.0234375
        k(   95) = (   0.2500000   0.5051815   0.0000000), wk =   0.0234375
        k(   96) = (   0.2500000   0.5412659   0.0000000), wk =   0.0234375
        k(   97) = (   0.2500000   0.5773503   0.0000000), wk =   0.0117188
        k(   98) = (   0.2812500   0.4871393   0.0000000), wk =   0.0117188
        k(   99) = (   0.2812500   0.5232237   0.0000000), wk =   0.0234375
        k(  100) = (   0.2812500   0.5593081   0.0000000), wk =   0.0234375
        k(  101) = (   0.3125000   0.5412659   0.0000000), wk =   0.0117188
        k(  102) = (   0.3125000   0.5773503   0.0000000), wk =   0.0117188

                       cryst. coord.
        k(    1) = (   0.0000000   0.0000000   0.0000000), wk =   0.0019531
        k(    2) = (   0.0000000   0.0312500   0.0000000), wk =   0.0117188
        k(    3) = (   0.0000000   0.0625000   0.0000000), wk =   0.0117188
        k(    4) = (   0.0000000   0.0937500   0.0000000), wk =   0.0117188
        k(    5) = (   0.0000000   0.1250000   0.0000000), wk =   0.0117188
        k(    6) = (   0.0000000   0.1562500   0.0000000), wk =   0.0117188
        k(    7) = (   0.0000000   0.1875000   0.0000000), wk =   0.0117188
        k(    8) = (   0.0000000   0.2187500   0.0000000), wk =   0.0117188
        k(    9) = (   0.0000000   0.2500000   0.0000000), wk =   0.0117188
        k(   10) = (   0.0000000   0.2812500   0.0000000), wk =   0.0117188
        k(   11) = (   0.0000000   0.3125000   0.0000000), wk =   0.0117188
        k(   12) = (   0.0000000   0.3437500   0.0000000), wk =   0.0117188
        k(   13) = (   0.0000000   0.3750000   0.0000000), wk =   0.0117188
        k(   14) = (   0.0000000   0.4062500   0.0000000), wk =   0.0117188
        k(   15) = (   0.0000000   0.4375000   0.0000000), wk =   0.0117188
        k(   16) = (   0.0000000   0.4687500   0.0000000), wk =   0.0117188
        k(   17) = (   0.0000000  -0.5000000   0.0000000), wk =   0.0058594
        k(   18) = (   0.0312500   0.0312500   0.0000000), wk =   0.0117188
        k(   19) = (   0.0312500   0.0625000   0.0000000), wk =   0.0234375
        k(   20) = (   0.0312500   0.0937500   0.0000000), wk =   0.0234375
        k(   21) = (   0.0312500   0.1250000   0.0000000), wk =   0.0234375
        k(   22) = (   0.0312500   0.1562500   0.0000000), wk =   0.0234375
        k(   23) = (   0.0312500   0.1875000   0.0000000), wk =   0.0234375
        k(   24) = (   0.0312500   0.2187500   0.0000000), wk =   0.0234375
        k(   25) = (   0.0312500   0.2500000   0.0000000), wk =   0.0234375
        k(   26) = (   0.0312500   0.2812500   0.0000000), wk =   0.0234375
        k(   27) = (   0.0312500   0.3125000   0.0000000), wk =   0.0234375
        k(   28) = (   0.0312500   0.3437500   0.0000000), wk =   0.0234375
        k(   29) = (   0.0312500   0.3750000   0.0000000), wk =   0.0234375
        k(   30) = (   0.0312500   0.4062500   0.0000000), wk =   0.0234375
        k(   31) = (   0.0312500   0.4375000   0.0000000), wk =   0.0234375
        k(   32) = (   0.0312500   0.4687500   0.0000000), wk =   0.0234375
        k(   33) = (   0.0625000   0.0625000   0.0000000), wk =   0.0117188
        k(   34) = (   0.0625000   0.0937500   0.0000000), wk =   0.0234375
        k(   35) = (   0.0625000   0.1250000   0.0000000), wk =   0.0234375
        k(   36) = (   0.0625000   0.1562500   0.0000000), wk =   0.0234375
        k(   37) = (   0.0625000   0.1875000   0.0000000), wk =   0.0234375
        k(   38) = (   0.0625000   0.2187500   0.0000000), wk =   0.0234375
        k(   39) = (   0.0625000   0.2500000   0.0000000), wk =   0.0234375
        k(   40) = (   0.0625000   0.2812500   0.0000000), wk =   0.0234375
        k(   41) = (   0.0625000   0.3125000   0.0000000), wk =   0.0234375
        k(   42) = (   0.0625000   0.3437500   0.0000000), wk =   0.0234375
        k(   43) = (   0.0625000   0.3750000   0.0000000), wk =   0.0234375
        k(   44) = (   0.0625000   0.4062500   0.0000000), wk =   0.0234375
        k(   45) = (   0.0625000   0.4375000   0.0000000), wk =   0.0234375
        k(   46) = (   0.0625000   0.4687500   0.0000000), wk =   0.0117188
        k(   47) = (   0.0937500   0.0937500   0.0000000), wk =   0.0117188
        k(   48) = (   0.0937500   0.1250000   0.0000000), wk =   0.0234375
        k(   49) = (   0.0937500   0.1562500   0.0000000), wk =   0.0234375
        k(   50) = (   0.0937500   0.1875000   0.0000000), wk =   0.0234375
        k(   51) = (   0.0937500   0.2187500   0.0000000), wk =   0.0234375
        k(   52) = (   0.0937500   0.2500000   0.0000000), wk =   0.0234375
        k(   53) = (   0.0937500   0.2812500   0.0000000), wk =   0.0234375
        k(   54) = (   0.0937500   0.3125000   0.0000000), wk =   0.0234375
        k(   55) = (   0.0937500   0.3437500   0.0000000), wk =   0.0234375
        k(   56) = (   0.0937500   0.3750000   0.0000000), wk =   0.0234375
        k(   57) = (   0.0937500   0.4062500   0.0000000), wk =   0.0234375
        k(   58) = (   0.0937500   0.4375000   0.0000000), wk =   0.0234375
        k(   59) = (   0.1250000   0.1250000   0.0000000), wk =   0.0117188
        k(   60) = (   0.1250000   0.1562500   0.0000000), wk =   0.0234375
        k(   61) = (   0.1250000   0.1875000   0.0000000), wk =   0.0234375
        k(   62) = (   0.1250000   0.2187500   0.0000000), wk =   0.0234375
        k(   63) = (   0.1250000   0.2500000   0.0000000), wk =   0.0234375
        k(   64) = (   0.1250000   0.2812500   0.0000000), wk =   0.0234375
        k(   65) = (   0.1250000   0.3125000   0.0000000), wk =   0.0234375
        k(   66) = (   0.1250000   0.3437500   0.0000000), wk =   0.0234375
        k(   67) = (   0.1250000   0.3750000   0.0000000), wk =   0.0234375
        k(   68) = (   0.1250000   0.4062500   0.0000000), wk =   0.0234375
        k(   69) = (   0.1250000   0.4375000   0.0000000), wk =   0.0117188
        k(   70) = (   0.1562500   0.1562500   0.0000000), wk =   0.0117188
        k(   71) = (   0.1562500   0.1875000   0.0000000), wk =   0.0234375
        k(   72) = (   0.1562500   0.2187500   0.0000000), wk =   0.0234375
        k(   73) = (   0.1562500   0.2500000   0.0000000), wk =   0.0234375
        k(   74) = (   0.1562500   0.2812500   0.0000000), wk =   0.0234375
        k(   75) = (   0.1562500   0.3125000   0.0000000), wk =   0.0234375
        k(   76) = (   0.1562500   0.3437500   0.0000000), wk =   0.0234375
        k(   77) = (   0.1562500   0.3750000   0.0000000), wk =   0.0234375
        k(   78) = (   0.1562500   0.4062500   0.0000000), wk =   0.0234375
        k(   79) = (   0.1875000   0.1875000   0.0000000), wk =   0.0117188
        k(   80) = (   0.1875000   0.2187500   0.0000000), wk =   0.0234375
        k(   81) = (   0.1875000   0.2500000   0.0000000), wk =   0.0234375
        k(   82) = (   0.1875000   0.2812500   0.0000000), wk =   0.0234375
        k(   83) = (   0.1875000   0.3125000   0.0000000), wk =   0.0234375
        k(   84) = (   0.1875000   0.3437500   0.0000000), wk =   0.0234375
        k(   85) = (   0.1875000   0.3750000   0.0000000), wk =   0.0234375
        k(   86) = (   0.1875000   0.4062500   0.0000000), wk =   0.0117188
        k(   87) = (   0.2187500   0.2187500   0.0000000), wk =   0.0117188
        k(   88) = (   0.2187500   0.2500000   0.0000000), wk =   0.0234375
        k(   89) = (   0.2187500   0.2812500   0.0000000), wk =   0.0234375
        k(   90) = (   0.2187500   0.3125000   0.0000000), wk =   0.0234375
        k(   91) = (   0.2187500   0.3437500   0.0000000), wk =   0.0234375
        k(   92) = (   0.2187500   0.3750000   0.0000000), wk =   0.0234375
        k(   93) = (   0.2500000   0.2500000   0.0000000), wk =   0.0117188
        k(   94) = (   0.2500000   0.2812500   0.0000000), wk =   0.0234375
        k(   95) = (   0.2500000   0.3125000   0.0000000), wk =   0.0234375
        k(   96) = (   0.2500000   0.3437500   0.0000000), wk =   0.0234375
        k(   97) = (   0.2500000   0.3750000   0.0000000), wk =   0.0117188
        k(   98) = (   0.2812500   0.2812500   0.0000000), wk =   0.0117188
        k(   99) = (   0.2812500   0.3125000   0.0000000), wk =   0.0234375
        k(  100) = (   0.2812500   0.3437500   0.0000000), wk =   0.0234375
        k(  101) = (   0.3125000   0.3125000   0.0000000), wk =   0.0117188
        k(  102) = (   0.3125000   0.3437500   0.0000000), wk =   0.0117188

     Dense  grid:     6307 G-vectors     FFT dimensions: (  15,  15,  80)

     Dynamical RAM for                 wfc:       0.10 MB

     Dynamical RAM for     wfc (w. buffer):       9.82 MB

     Dynamical RAM for           str. fact:       0.19 MB

     Dynamical RAM for           local pot:       0.00 MB

     Dynamical RAM for          nlocal pot:       0.19 MB

     Dynamical RAM for                qrad:       0.41 MB

     Dynamical RAM for          rho,v,vnew:       0.70 MB

     Dynamical RAM for               rhoin:       0.23 MB

     Dynamical RAM for            rho*nmix:       1.54 MB

     Dynamical RAM for           G-vectors:       0.41 MB

     Dynamical RAM for          h,s,v(r/c):       0.01 MB

     Dynamical RAM for          <psi|beta>:       0.00 MB

     Dynamical RAM for                 psi:       0.19 MB

     Dynamical RAM for                hpsi:       0.19 MB

     Dynamical RAM for      wfcinit/wfcrot:       0.19 MB

     Estimated static dynamical RAM per process >      14.47 MB

     Estimated max dynamical RAM per process >      14.87 MB

     Check: negative core charge=   -0.000497

     Initial potential from superposition of free atoms

     starting charge    7.99974, renormalised to    8.00000

     negative rho (up, down):  2.216E-02 0.000E+00
     Starting wfcs are    8 randomized atomic wfcs

     total cpu time spent up to now is        0.3 secs

     Self-consistent Calculation

     iteration #  1     ecut=    20.00 Ry     beta= 0.70
     Davidson diagonalization with overlap
     ethr =  1.00E-02,  avg # of iterations =  9.0

     negative rho (up, down):  6.111E-03 0.000E+00

     total cpu time spent up to now is        1.4 secs

     total energy              =     -25.92225699 Ry
     estimated scf accuracy    <       0.15656265 Ry

     iteration #  2     ecut=    20.00 Ry     beta= 0.70
     Davidson diagonalization with overlap
     ethr =  1.96E-03,  avg # of iterations =  3.8

     negative rho (up, down):  7.949E-04 0.000E+00

     total cpu time spent up to now is        2.1 secs

     total energy              =     -25.93190666 Ry
     estimated scf accuracy    <       0.00755379 Ry

     iteration #  3     ecut=    20.00 Ry     beta= 0.70
     Davidson diagonalization with overlap
     ethr =  9.44E-05,  avg # of iterations =  6.0

     negative rho (up, down):  7.459E-05 0.000E+00

     total cpu time spent up to now is        3.0 secs

     total energy              =     -25.93254745 Ry
     estimated scf accuracy    <       0.00096026 Ry

     iteration #  4     ecut=    20.00 Ry     beta= 0.70
     Davidson diagonalization with overlap
     ethr =  1.20E-05,  avg # of iterations =  3.5

     total cpu time spent up to now is        3.7 secs

     total energy              =     -25.93265164 Ry
     estimated scf accuracy    <       0.00002680 Ry

     iteration #  5     ecut=    20.00 Ry     beta= 0.70
     Davidson diagonalization with overlap
     ethr =  3.35E-07,  avg # of iterations =  3.1

     total cpu time spent up to now is        4.3 secs

     total energy              =     -25.93265930 Ry
     estimated scf accuracy    <       0.00000451 Ry

     iteration #  6     ecut=    20.00 Ry     beta= 0.70
     Davidson diagonalization with overlap
     ethr =  5.64E-08,  avg # of iterations =  1.3

     total cpu time spent up to now is        4.9 secs

     End of self-consistent calculation

          k = 0.0000 0.0000 0.0000 (   801 PWs)   bands (ev):

   -22.6618  -9.1253  -4.5278  -4.5278  -0.6568   0.0380   0.4457   2.5923

     occupation numbers 
     1.0000   1.0000   1.0000   1.0000   0.0000   0.0000   0.0000   0.0000

          k = 0.0000 0.0361 0.0000 (   795 PWs)   bands (ev):

   -22.6365  -9.0921  -4.5646  -4.5506  -0.6229   0.0704   0.4802   2.6244

     occupation numbers 
     1.0000   1.0000   1.0000   1.0000   0.0000   0.0000   0.0000   0.0000

          k = 0.0000 0.0722 0.0000 (   799 PWs)   bands (ev):

   -22.5824  -9.0278  -4.8789  -4.6781  -0.5230   0.1657   0.5808   2.7152

     occupation numbers 
     1.0000   1.0000   1.0000   1.0000   0.0000   0.0000   0.0000   0.0000

          k = 0.0000 0.1083 0.0000 (   795 PWs)   bands (ev):

   -22.4769  -8.8890  -5.2799  -4.8713  -0.3571   0.3263   0.7485   2.8709

     occupation numbers 
     1.0000   1.0000   1.0000   1.0000   0.0000   0.0000   0.0000   0.0000

          k = 0.0000 0.1443 0.0000 (   795 PWs)   bands (ev):

   -22.3346  -8.6988  -5.8659  -5.1058  -0.1273   0.5506   0.9795   3.0865

     occupation numbers 
     1.0000   1.0000   1.0000   1.0000   0.0000   0.0000   0.0000   0.0000

          k = 0.0000 0.1804 0.0000 (   786 PWs)   bands (ev):

   -22.1538  -8.4312  -6.4434  -5.3592   0.1659   0.8399   1.2728   3.3654

     occupation numbers 
     1.0000   1.0000   1.0000   1.0000   0.0000   0.0000   0.0000   0.0000

          k = 0.0000 0.2165 0.0000 (   786 PWs)   bands (ev):

   -21.9475  -8.1350  -7.1742  -5.6668   0.5229   1.1911   1.6287   3.6974

     occupation numbers 
     1.0000   1.0000   1.0000   1.0000   0.0000   0.0000   0.0000   0.0000

          k = 0.0000 0.2526 0.0000 (   784 PWs)   bands (ev):

   -21.7060  -7.8780  -7.7966  -6.0257   0.9431   1.6038   2.0459   4.0755

     occupation numbers 
     1.0000   1.0000   1.0000   1.0000   0.0000   0.0000   0.0000   0.0000

          k = 0.0000 0.2887 0.0000 (   780 PWs)   bands (ev):

   -21.4327  -8.6158  -7.4098  -6.3413   1.4270   2.0765   2.5254   4.4812

     occupation numbers 
     1.0000   1.0000   1.0000   1.0000   0.0000   0.0000   0.0000   0.0000

          k = 0.0000 0.3248 0.0000 (   770 PWs)   bands (ev):

   -21.1275  -9.3106  -6.9744  -6.5969   1.9745   2.6036   3.0668   4.8356

     occupation numbers 
     1.0000   1.0000   1.0000   1.0000   0.0000   0.0000   0.0000   0.0000

          k = 0.0000 0.3608 0.0000 (   776 PWs)   bands (ev):

   -20.8132 -10.1032  -6.8616  -6.5159   2.5838   3.1566   3.6661   4.8233

     occupation numbers 
     1.0000   1.0000   1.0000   1.0000   0.0000   0.0000   0.0000   0.0000

          k = 0.0000 0.3969 0.0000 (   776 PWs)   bands (ev):

   -20.5035 -10.8194  -7.0822  -6.0183   3.2543   3.5692   4.3216   4.5340

     occupation numbers 
     1.0000   1.0000   1.0000   1.0000   0.0000   0.0000   0.0000   0.0000

          k = 0.0000 0.4330 0.0000 (   784 PWs)   bands (ev):

   -20.1919 -11.4879  -7.3281  -5.5268   3.2441   3.9838   4.8673   5.0260

     occupation numbers 
     1.0000   1.0000   1.0000   1.0000   0.0000   0.0000   0.0000   0.0000

          k = 0.0000 0.4691 0.0000 (   792 PWs)   bands (ev):

   -19.9119 -12.0598  -7.5083  -5.0586   2.6107   4.7625   5.5925   5.7517

     occupation numbers 
     1.0000   1.0000   1.0000   1.0000   0.0000   0.0000   0.0000   0.0000

          k = 0.0000 0.5052 0.0000 (   792 PWs)   bands (ev):

   -19.6616 -12.5014  -7.6199  -4.6412   2.0477   5.5647   6.4174   6.4306

     occupation numbers 
     1.0000   1.0000   1.0000   1.0000   0.0000   0.0000   0.0000   0.0000

          k = 0.0000 0.5413 0.0000 (   790 PWs)   bands (ev):

   -19.4986 -12.7724  -7.6855  -4.3332   1.6633   6.2260   6.9669   7.3426

     occupation numbers 
     1.0000   1.0000   1.0000   1.0000   0.0000   0.0000   0.0000   0.0000

          k = 0.0000-0.5774 0.0000 (   782 PWs)   bands (ev):

   -19.4315 -12.8579  -7.6794  -4.1923   1.5305   6.4419   7.6517   7.8827

     occupation numbers 
     1.0000   1.0000   1.0000   1.0000   0.0000   0.0000   0.0000   0.0000

          k = 0.0312 0.0541 0.0000 (   799 PWs)   bands (ev):

   -22.6008  -9.0475  -4.7843  -4.6563  -0.5563   0.1340   0.5471   2.6852

     occupation numbers 
     1.0000   1.0000   1.0000   1.0000   0.0000   0.0000   0.0000   0.0000

          k = 0.0312 0.0902 0.0000 (   797 PWs)   bands (ev):

   -22.5196  -8.9476  -5.0846  -4.8261  -0.4233   0.2619   0.6815   2.8080

     occupation numbers 
     1.0000   1.0000   1.0000   1.0000   0.0000   0.0000   0.0000   0.0000

          k = 0.0312 0.1263 0.0000 (   795 PWs)   bands (ev):

   -22.3954  -8.7803  -5.6021  -5.0386  -0.2255   0.4545   0.8809   2.9941

     occupation numbers 
     1.0000   1.0000   1.0000   1.0000   0.0000   0.0000   0.0000   0.0000

          k = 0.0312 0.1624 0.0000 (   791 PWs)   bands (ev):

   -22.2313  -8.5555  -6.1654  -5.3088   0.0361   0.7110   1.1433   3.2406

     occupation numbers 
     1.0000   1.0000   1.0000   1.0000   0.0000   0.0000   0.0000   0.0000

          k = 0.0312 0.1985 0.0000 (   790 PWs)   bands (ev):

   -22.0430  -8.2715  -6.8340  -5.6292   0.3611   1.0315   1.4678   3.5468

     occupation numbers 
     1.0000   1.0000   1.0000   1.0000   0.0000   0.0000   0.0000   0.0000

          k = 0.0312 0.2345 0.0000 (   788 PWs)   bands (ev):

   -21.8225  -7.9550  -7.5385  -5.9246   0.7493   1.4134   1.8537   3.9023

     occupation numbers 
     1.0000   1.0000   1.0000   1.0000   0.0000   0.0000   0.0000   0.0000

          k = 0.0312 0.2706 0.0000 (   772 PWs)   bands (ev):

   -21.5491  -8.1989  -7.5861  -6.1848   1.2023   1.8569   2.3038   4.2998

     occupation numbers 
     1.0000   1.0000   1.0000   1.0000   0.0000   0.0000   0.0000   0.0000

          k = 0.0312 0.3067 0.0000 (   772 PWs)   bands (ev):

   -21.2690  -8.9657  -7.1756  -6.4773   1.7178   2.3577   2.8141   4.6952

     occupation numbers 
     1.0000   1.0000   1.0000   1.0000   0.0000   0.0000   0.0000   0.0000

          k = 0.0312 0.3428 0.0000 (   771 PWs)   bands (ev):

   -20.9659  -9.7034  -6.7658  -6.7188   2.2960   2.9052   3.3845   4.9208

     occupation numbers 
     1.0000   1.0000   1.0000   1.0000   0.0000   0.0000   0.0000   0.0000

          k = 0.0312 0.3789 0.0000 (   775 PWs)   bands (ev):

   -20.6520 -10.4718  -7.0079  -6.2475   2.9365   3.4329   4.0133   4.6699

     occupation numbers 
     1.0000   1.0000   1.0000   1.0000   0.0000   0.0000   0.0000   0.0000

          k = 0.0312 0.4150 0.0000 (   777 PWs)   bands (ev):

   -20.3309 -11.1645  -7.2452  -5.7474   3.5122   3.6379   4.6262   4.6969

     occupation numbers 
     1.0000   1.0000   1.0000   1.0000   0.0000   0.0000   0.0000   0.0000

          k = 0.0312 0.4511 0.0000 (   782 PWs)   bands (ev):

   -20.0300 -11.7714  -7.4303  -5.2651   2.9415   4.3949   5.2328   5.4211

     occupation numbers 
     1.0000   1.0000   1.0000   1.0000   0.0000   0.0000   0.0000   0.0000

          k = 0.0312 0.4871 0.0000 (   788 PWs)   bands (ev):

   -19.7633 -12.2835  -7.5910  -4.8195   2.3211   5.1956   6.0239   6.1444

     occupation numbers 
     1.0000   1.0000   1.0000   1.0000   0.0000   0.0000   0.0000   0.0000

          k = 0.0312 0.5232 0.0000 (   786 PWs)   bands (ev):

   -19.5493 -12.6447  -7.6666  -4.4493   1.8365   5.9817   6.7466   6.9012

     occupation numbers 
     1.0000   1.0000   1.0000   1.0000   0.0000   0.0000   0.0000   0.0000

          k = 0.0312 0.5593 0.0000 (   784 PWs)   bands (ev):

   -19.4390 -12.8283  -7.7214  -4.2180   1.5695   6.4707   7.3554   7.8426

     occupation numbers 
     1.0000   1.0000   1.0000   1.0000   0.0000   0.0000   0.0000   0.0000

          k = 0.0625 0.1083 0.0000 (   803 PWs)   bands (ev):

   -22.4242  -8.8250  -5.5379  -5.0457  -0.2587   0.4213   0.8473   2.9608

     occupation numbers 
     1.0000   1.0000   1.0000   1.0000   0.0000   0.0000   0.0000   0.0000

          k = 0.0625 0.1443 0.0000 (   787 PWs)   bands (ev):

   -22.2675  -8.6036  -5.9825  -5.2490  -0.0285   0.6475   1.0790   3.1807

     occupation numbers 
     1.0000   1.0000   1.0000   1.0000   0.0000   0.0000   0.0000   0.0000

          k = 0.0625 0.1804 0.0000 (   784 PWs)   bands (ev):

   -22.0929  -8.3598  -6.5452  -5.5416   0.2647   0.9353   1.3723   3.4555

     occupation numbers 
     1.0000   1.0000   1.0000   1.0000   0.0000   0.0000   0.0000   0.0000

          k = 0.0625 0.2165 0.0000 (   782 PWs)   bands (ev):

   -21.8866  -8.0485  -7.2218  -5.8939   0.6215   1.2874   1.7280   3.7888

     occupation numbers 
     1.0000   1.0000   1.0000   1.0000   0.0000   0.0000   0.0000   0.0000

          k = 0.0625 0.2526 0.0000 (   784 PWs)   bands (ev):

   -21.6565  -7.9032  -7.7186  -6.2376   1.0415   1.6989   2.1453   4.1615

     occupation numbers 
     1.0000   1.0000   1.0000   1.0000   0.0000   0.0000   0.0000   0.0000

          k = 0.0625 0.2887 0.0000 (   778 PWs)   bands (ev):

   -21.3864  -8.6178  -7.3295  -6.5408   1.5258   2.1712   2.6258   4.5616

     occupation numbers 
     1.0000   1.0000   1.0000   1.0000   0.0000   0.0000   0.0000   0.0000

          k = 0.0625 0.3248 0.0000 (   776 PWs)   bands (ev):

   -21.0936  -9.3724  -6.8901  -6.8228   2.0731   2.6973   3.1671   4.8969

     occupation numbers 
     1.0000   1.0000   1.0000   1.0000   0.0000   0.0000   0.0000   0.0000

          k = 0.0625 0.3608 0.0000 (   775 PWs)   bands (ev):

   -20.7765 -10.0934  -7.0952  -6.4320   2.6837   3.2465   3.7696   4.8496

     occupation numbers 
     1.0000   1.0000   1.0000   1.0000   0.0000   0.0000   0.0000   0.0000

          k = 0.0625 0.3969 0.0000 (   781 PWs)   bands (ev):

   -20.4637 -10.8220  -7.3406  -5.9533   3.3555   3.6131   4.4285   4.5621

     occupation numbers 
     1.0000   1.0000   1.0000   1.0000   0.0000   0.0000   0.0000   0.0000

          k = 0.0625 0.4330 0.0000 (   775 PWs)   bands (ev):

   -20.1367 -11.4408  -7.5296  -5.4412   3.2726   4.0886   4.9524   5.1422

     occupation numbers 
     1.0000   1.0000   1.0000   1.0000   0.0000   0.0000   0.0000   0.0000

          k = 0.0625 0.4691 0.0000 (   775 PWs)   bands (ev):

   -19.8441 -12.0053  -7.6591  -4.9667   2.6502   4.8749   5.6834   5.8898

     occupation numbers 
     1.0000   1.0000   1.0000   1.0000   0.0000   0.0000   0.0000   0.0000

          k = 0.0625 0.5052 0.0000 (   781 PWs)   bands (ev):

   -19.6068 -12.4496  -7.8013  -4.5593   2.0796   5.6980   6.5213   6.6124

     occupation numbers 
     1.0000   1.0000   1.0000   1.0000   0.0000   0.0000   0.0000   0.0000

          k = 0.0625 0.5413 0.0000 (   786 PWs)   bands (ev):

   -19.4535 -12.7216  -7.9281  -4.2584   1.6859   6.4560   7.1728   7.4317

     occupation numbers 
     1.0000   1.0000   1.0000   1.0000   0.0000   0.0000   0.0000   0.0000

          k = 0.0625 0.5774 0.0000 (   782 PWs)   bands (ev):

   -19.3889 -12.8095  -7.9385  -4.1363   1.5463   6.7678   7.7468   8.0165

     occupation numbers 
     1.0000   1.0000   1.0000   1.0000   0.0000   0.0000   0.0000   0.0000

          k = 0.0938 0.1624 0.0000 (   797 PWs)   bands (ev):

   -22.1185  -8.4139  -6.4897  -5.6533   0.2324   0.9016   1.3403   3.4199

     occupation numbers 
     1.0000   1.0000   1.0000   1.0000   0.0000   0.0000   0.0000   0.0000

          k = 0.0938 0.1985 0.0000 (   795 PWs)   bands (ev):

   -21.9398  -8.1369  -7.0509  -5.9619   0.5566   1.2214   1.6636   3.7227

     occupation numbers 
     1.0000   1.0000   1.0000   1.0000   0.0000   0.0000   0.0000   0.0000

          k = 0.0938 0.2345 0.0000 (   788 PWs)   bands (ev):

   -21.7216  -7.8075  -7.6523  -6.3037   0.9454   1.6035   2.0508   4.0761

     occupation numbers 
     1.0000   1.0000   1.0000   1.0000   0.0000   0.0000   0.0000   0.0000

          k = 0.0938 0.2706 0.0000 (   781 PWs)   bands (ev):

   -21.4618  -8.3195  -7.4360  -6.6384   1.3984   2.0462   2.5015   4.4651

     occupation numbers 
     1.0000   1.0000   1.0000   1.0000   0.0000   0.0000   0.0000   0.0000

          k = 0.0938 0.3067 0.0000 (   782 PWs)   bands (ev):

   -21.1843  -9.0593  -7.0439  -6.9508   1.9146   2.5433   3.0134   4.8280

     occupation numbers 
     1.0000   1.0000   1.0000   1.0000   0.0000   0.0000   0.0000   0.0000

          k = 0.0938 0.3428 0.0000 (   782 PWs)   bands (ev):

   -20.8864  -9.7790  -7.2550  -6.5866   2.4940   3.0839   3.5867   4.9649

     occupation numbers 
     1.0000   1.0000   1.0000   1.0000   0.0000   0.0000   0.0000   0.0000

          k = 0.0938 0.3789 0.0000 (   778 PWs)   bands (ev):

   -20.5573 -10.4631  -7.4910  -6.1051   3.1369   3.5773   4.2212   4.6736

     occupation numbers 
     1.0000   1.0000   1.0000   1.0000   0.0000   0.0000   0.0000   0.0000

          k = 0.0938 0.4150 0.0000 (   785 PWs)   bands (ev):

   -20.2492 -11.1376  -7.7438  -5.6286   3.5037   3.8408   4.7604   4.9120

     occupation numbers 
     1.0000   1.0000   1.0000   1.0000   0.0000   0.0000   0.0000   0.0000

          k = 0.0938 0.4511 0.0000 (   783 PWs)   bands (ev):

   -19.9468 -11.7162  -7.9048  -5.1402   2.9359   4.6042   5.4089   5.6549

     occupation numbers 
     1.0000   1.0000   1.0000   1.0000   0.0000   0.0000   0.0000   0.0000

          k = 0.0938 0.4871 0.0000 (   777 PWs)   bands (ev):

   -19.6647 -12.1918  -8.0192  -4.6758   2.3531   5.4223   6.2040   6.4317

     occupation numbers 
     1.0000   1.0000   1.0000   1.0000   0.0000   0.0000   0.0000   0.0000

          k = 0.0938 0.5232 0.0000 (   775 PWs)   bands (ev):

   -19.4553 -12.5429  -8.1048  -4.2970   1.8654   6.2705   7.0794   7.1604

     occupation numbers 
     1.0000   1.0000   1.0000   1.0000   0.0000   0.0000   0.0000   0.0000

          k = 0.0938 0.5593 0.0000 (   775 PWs)   bands (ev):

   -19.3476 -12.7266  -8.1674  -4.0841   1.6013   7.0022   7.6760   8.0128

     occupation numbers 
     1.0000   1.0000   1.0000   1.0000   0.0000   0.0000   0.0000   0.0000

          k = 0.1250 0.2165 0.0000 (   785 PWs)   bands (ev):

   -21.7394  -7.8329  -7.5111  -6.3337   0.9136   1.5723   2.0198   4.0499

     occupation numbers 
     1.0000   1.0000   1.0000   1.0000   0.0000   0.0000   0.0000   0.0000

          k = 0.1250 0.2526 0.0000 (   783 PWs)   bands (ev):

   -21.4982  -8.1527  -7.4851  -6.7305   1.3351   1.9838   2.4400   4.4156

     occupation numbers 
     1.0000   1.0000   1.0000   1.0000   0.0000   0.0000   0.0000   0.0000

          k = 0.1250 0.2887 0.0000 (   791 PWs)   bands (ev):

   -21.2492  -8.8320  -7.1290  -7.1177   1.8193   2.4504   2.9208   4.7726

     occupation numbers 
     1.0000   1.0000   1.0000   1.0000   0.0000   0.0000   0.0000   0.0000

          k = 0.1250 0.3248 0.0000 (   786 PWs)   bands (ev):

   -20.9564  -9.4882  -7.4457  -6.6925   2.3680   2.9686   3.4654   4.9980

     occupation numbers 
     1.0000   1.0000   1.0000   1.0000   0.0000   0.0000   0.0000   0.0000

          k = 0.1250 0.3608 0.0000 (   780 PWs)   bands (ev):

   -20.6405 -10.1569  -7.7153  -6.2202   2.9803   3.4928   4.0722   4.8265

     occupation numbers 
     1.0000   1.0000   1.0000   1.0000   0.0000   0.0000   0.0000   0.0000

          k = 0.1250 0.3969 0.0000 (   782 PWs)   bands (ev):

   -20.3269 -10.8134  -7.9604  -5.7458   3.6549   3.6934   4.6837   4.7379

     occupation numbers 
     1.0000   1.0000   1.0000   1.0000   0.0000   0.0000   0.0000   0.0000

          k = 0.1250 0.4330 0.0000 (   777 PWs)   bands (ev):

   -20.0069 -11.3745  -8.1729  -5.2472   3.2233   4.3917   5.2044   5.4628

     occupation numbers 
     1.0000   1.0000   1.0000   1.0000   0.0000   0.0000   0.0000   0.0000

          k = 0.1250 0.4691 0.0000 (   779 PWs)   bands (ev):

   -19.7286 -11.9116  -8.3422  -4.7833   2.6258   5.1872   5.9513   6.2383

     occupation numbers 
     1.0000   1.0000   1.0000   1.0000   0.0000   0.0000   0.0000   0.0000

          k = 0.1250 0.5052 0.0000 (   776 PWs)   bands (ev):

   -19.4885 -12.3133  -8.4593  -4.3644   2.1031   6.0366   6.7881   7.0468

     occupation numbers 
     1.0000   1.0000   1.0000   1.0000   0.0000   0.0000   0.0000   0.0000

          k = 0.1250 0.5413 0.0000 (   774 PWs)   bands (ev):

   -19.3262 -12.5775  -8.5309  -4.0555   1.7360   6.9145   7.6902   7.7890

     occupation numbers 
     1.0000   1.0000   1.0000   1.0000   0.0000   0.0000   0.0000   0.0000

          k = 0.1250 0.5774 0.0000 (   776 PWs)   bands (ev):

   -19.2682 -12.6721  -8.5624  -3.9601   1.5941   7.5462   8.0319   8.4790

     occupation numbers 
     1.0000   1.0000   1.0000   1.0000   0.0000   0.0000   0.0000   0.0000

          k = 0.1562 0.2706 0.0000 (   783 PWs)   bands (ev):

   -21.2514  -8.7142  -7.1393  -7.1378   1.7886   2.4212   2.8920   4.7596

     occupation numbers 
     1.0000   1.0000   1.0000   1.0000   0.0000   0.0000   0.0000   0.0000

          k = 0.1562 0.3067 0.0000 (   782 PWs)   bands (ev):

   -20.9848  -9.3149  -7.5311  -6.7287   2.3052   2.9116   3.4049   5.0119

     occupation numbers 
     1.0000   1.0000   1.0000   1.0000   0.0000   0.0000   0.0000   0.0000

          k = 0.1562 0.3428 0.0000 (   780 PWs)   bands (ev):

   -20.6880  -9.9189  -7.8985  -6.2861   2.8864   3.4277   3.9824   4.9343

     occupation numbers 
     1.0000   1.0000   1.0000   1.0000   0.0000   0.0000   0.0000   0.0000

          k = 0.1562 0.3789 0.0000 (   778 PWs)   bands (ev):

   -20.3718 -10.5266  -8.1921  -5.8245   3.5313   3.7765   4.6220   4.7016

     occupation numbers 
     1.0000   1.0000   1.0000   1.0000   0.0000   0.0000   0.0000   0.0000

          k = 0.1562 0.4150 0.0000 (   781 PWs)   bands (ev):

   -20.0722 -11.1107  -8.4423  -5.3545   3.4604   4.2375   5.0695   5.3196

     occupation numbers 
     1.0000   1.0000   1.0000   1.0000   0.0000   0.0000   0.0000   0.0000

          k = 0.1562 0.4511 0.0000 (   780 PWs)   bands (ev):

   -19.7774 -11.6100  -8.6695  -4.8722   2.8828   5.0056   5.7624   6.0759

     occupation numbers 
     1.0000   1.0000   1.0000   1.0000   0.0000   0.0000   0.0000   0.0000

          k = 0.1562 0.4871 0.0000 (   778 PWs)   bands (ev):

   -19.5128 -12.0541  -8.8286  -4.4221   2.3317   5.8343   6.5599   6.8862

     occupation numbers 
     1.0000   1.0000   1.0000   1.0000   0.0000   0.0000   0.0000   0.0000

          k = 0.1562 0.5232 0.0000 (   776 PWs)   bands (ev):

   -19.3135 -12.3726  -8.9296  -4.0670   1.9043   6.7165   7.4230   7.7291

     occupation numbers 
     1.0000   1.0000   1.0000   1.0000   0.0000   0.0000   0.0000   0.0000

          k = 0.1562 0.5593 0.0000 (   780 PWs)   bands (ev):

   -19.2158 -12.5524  -8.9799  -3.8836   1.6533   7.6185   8.3220   8.3932

     occupation numbers 
     1.0000   1.0000   1.0000   1.0000   0.0000   0.0000   0.0000   0.0000

          k = 0.1875 0.3248 0.0000 (   771 PWs)   bands (ev):

   -20.6900  -9.7867  -7.9337  -6.3023   2.8555   3.4058   3.9530   4.9784

     occupation numbers 
     1.0000   1.0000   1.0000   1.0000   0.0000   0.0000   0.0000   0.0000

          k = 0.1875 0.3608 0.0000 (   779 PWs)   bands (ev):

   -20.4060 -10.3483  -8.3688  -5.8647   3.4685   3.7980   4.5621   4.7439

     occupation numbers 
     1.0000   1.0000   1.0000   1.0000   0.0000   0.0000   0.0000   0.0000

          k = 0.1875 0.3969 0.0000 (   783 PWs)   bands (ev):

   -20.1081 -10.8884  -8.6959  -5.4083   3.6175   4.1447   4.9980   5.2324

     occupation numbers 
     1.0000   1.0000   1.0000   1.0000   0.0000   0.0000   0.0000   0.0000

          k = 0.1875 0.4330 0.0000 (   783 PWs)   bands (ev):

   -19.8066 -11.3612  -8.9828  -4.9399   3.0942   4.8839   5.6378   5.9640

     occupation numbers 
     1.0000   1.0000   1.0000   1.0000   0.0000   0.0000   0.0000   0.0000

          k = 0.1875 0.4691 0.0000 (   782 PWs)   bands (ev):

   -19.5441 -11.7900  -9.1931  -4.4771   2.5426   5.6841   6.3952   6.7527

     occupation numbers 
     1.0000   1.0000   1.0000   1.0000   0.0000   0.0000   0.0000   0.0000

          k = 0.1875 0.5052 0.0000 (   782 PWs)   bands (ev):

   -19.3191 -12.1426  -9.3482  -4.0856   2.0727   6.5445   7.2187   7.5958

     occupation numbers 
     1.0000   1.0000   1.0000   1.0000   0.0000   0.0000   0.0000   0.0000

          k = 0.1875 0.5413 0.0000 (   780 PWs)   bands (ev):

   -19.1683 -12.3641  -9.4276  -3.8064   1.7554   7.4559   8.0766   8.4653

     occupation numbers 
     1.0000   1.0000   1.0000   1.0000   0.0000   0.0000   0.0000   0.0000

          k = 0.1875 0.5774 0.0000 (   780 PWs)   bands (ev):

   -19.1138 -12.4496  -9.4557  -3.7084   1.6371   8.3074   8.5093   8.7361

     occupation numbers 
     1.0000   1.0000   1.0000   1.0000   0.0000   0.0000   0.0000   0.0000

          k = 0.2188 0.3789 0.0000 (   775 PWs)   bands (ev):

   -20.1030 -10.7843  -8.7854  -5.4061   3.7049   4.1148   4.9810   5.2053

     occupation numbers 
     1.0000   1.0000   1.0000   1.0000   0.0000   0.0000   0.0000   0.0000

          k = 0.2188 0.4150 0.0000 (   787 PWs)   bands (ev):

   -19.8352 -11.2267  -9.1746  -4.9732   3.2107   4.8219   5.5762   5.9057

     occupation numbers 
     1.0000   1.0000   1.0000   1.0000   0.0000   0.0000   0.0000   0.0000

          k = 0.2188 0.4511 0.0000 (   783 PWs)   bands (ev):

   -19.5526 -11.5820  -9.4559  -4.5145   2.6976   5.5935   6.2950   6.6702

     occupation numbers 
     1.0000   1.0000   1.0000   1.0000   0.0000   0.0000   0.0000   0.0000

          k = 0.2188 0.4871 0.0000 (   778 PWs)   bands (ev):

   -19.3112 -11.9018  -9.6541  -4.0871   2.2338   6.4258   7.0782   7.4917

     occupation numbers 
     1.0000   1.0000   1.0000   1.0000   0.0000   0.0000   0.0000   0.0000

          k = 0.2188 0.5232 0.0000 (   776 PWs)   bands (ev):

   -19.1285 -12.1525  -9.8004  -3.7468   1.8717   7.3167   7.8882   8.3653

     occupation numbers 
     1.0000   1.0000   1.0000   1.0000   0.0000   0.0000   0.0000   0.0000

          k = 0.2188 0.5593 0.0000 (   778 PWs)   bands (ev):

   -19.0357 -12.2881  -9.8877  -3.5553   1.6604   8.2549   8.5915   9.1676

     occupation numbers 
     1.0000   1.0000   1.0000   1.0000   0.0000   0.0000   0.0000   0.0000

          k = 0.2500 0.4330 0.0000 (   781 PWs)   bands (ev):

   -19.5577 -11.4952  -9.5650  -4.5106   2.7697   5.5632   6.2616   6.6424

     occupation numbers 
     1.0000   1.0000   1.0000   1.0000   0.0000   0.0000   0.0000   0.0000

          k = 0.2500 0.4691 0.0000 (   779 PWs)   bands (ev):

   -19.3120 -11.7588  -9.8583  -4.0959   2.3326   6.3653   7.0056   7.4366

     occupation numbers 
     1.0000   1.0000   1.0000   1.0000   0.0000   0.0000   0.0000   0.0000

          k = 0.2500 0.5052 0.0000 (   776 PWs)   bands (ev):

   -19.1137 -11.9646 -10.0881  -3.7258   1.9592   7.2275   7.7649   8.2880

     occupation numbers 
     1.0000   1.0000   1.0000   1.0000   0.0000   0.0000   0.0000   0.0000

          k = 0.2500 0.5413 0.0000 (   780 PWs)   bands (ev):

   -18.9889 -12.1141 -10.2412  -3.4896   1.6934   8.1440   8.3991   9.1820

     occupation numbers 
     1.0000   1.0000   1.0000   1.0000   0.0000   0.0000   0.0000   0.0000

          k = 0.2500 0.5774 0.0000 (   776 PWs)   bands (ev):

   -18.9386 -12.1529 -10.3015  -3.3576   1.6057   8.6301   9.0397   9.1830

     occupation numbers 
     1.0000   1.0000   1.0000   1.0000   0.0000   0.0000   0.0000   0.0000

          k = 0.2812 0.4871 0.0000 (   777 PWs)   bands (ev):

   -19.1101 -11.8902 -10.2053  -3.7118   1.9864   7.1975   7.7223   8.2605

     occupation numbers 
     1.0000   1.0000   1.0000   1.0000   0.0000   0.0000   0.0000   0.0000

          k = 0.2812 0.5232 0.0000 (   778 PWs)   bands (ev):

   -18.9597 -11.9795 -10.4678  -3.4299   1.7192   8.0867   8.2865   9.1352

     occupation numbers 
     1.0000   1.0000   1.0000   1.0000   0.0000   0.0000   0.0000   0.0000

          k = 0.2812 0.5593 0.0000 (   770 PWs)   bands (ev):

   -18.8694 -12.0018 -10.5821  -3.2367   1.5829   8.4917   9.0248   9.9451

     occupation numbers 
     1.0000   1.0000   1.0000   1.0000   0.0000   0.0000   0.0000   0.0000

          k = 0.3125 0.5413 0.0000 (   765 PWs)   bands (ev):

   -18.8387 -11.9064 -10.6823  -3.1979   1.5753   8.4314   8.9996  10.0209

     occupation numbers 
     1.0000   1.0000   1.0000   1.0000   0.0000   0.0000   0.0000   0.0000

          k = 0.3125 0.5774 0.0000 (   771 PWs)   bands (ev):

   -18.8183 -11.9093 -10.7995  -3.1579   1.5184   8.4313   9.8395  10.0483

     occupation numbers 
     1.0000   1.0000   1.0000   1.0000   0.0000   0.0000   0.0000   0.0000

     the Fermi energy is    -2.1500 ev

!    total energy              =     -25.93265943 Ry
     estimated scf accuracy    <       0.00000018 Ry
     smearing contrib. (-TS)   =       0.00000000 Ry
     internal energy E=F+TS    =     -25.93265943 Ry

     The total energy is F=E-TS. E is the sum of the following terms:
     one-electron contribution =    -156.50671368 Ry
     hartree contribution      =      79.82804945 Ry
     xc contribution           =      -8.54410867 Ry
     ewald contribution        =      59.29011347 Ry

     convergence has been achieved in   6 iterations

     Forces acting on atoms (cartesian axes, Ry/au):

     atom    1 type  2   force =     0.00000000    0.00000000    0.00000000
     atom    2 type  1   force =     0.00000000    0.00000000    0.00000000
     The non-local contrib.  to forces
     atom    1 type  2   force =     0.00000000    0.00000000    0.00000000
     atom    2 type  1   force =     0.00000000   -0.00000000    0.00000000
     The ionic contribution  to forces
     atom    1 type  2   force =    -0.00000001    0.00000000   -0.00000000
     atom    2 type  1   force =     0.00000001   -0.00000000   -0.00000000
     The local contribution  to forces
     atom    1 type  2   force =     0.00000000    0.00000000   -0.00000000
     atom    2 type  1   force =     0.00000002   -0.00000001   -0.00000000
     The core correction contribution to forces
     atom    1 type  2   force =     0.00000000   -0.00000000    0.00000000
     atom    2 type  1   force =    -0.00000000    0.00000000   -0.00000000
     The Hubbard contrib.    to forces
     atom    1 type  2   force =     0.00000000    0.00000000    0.00000000
     atom    2 type  1   force =     0.00000000    0.00000000    0.00000000
     The SCF correction term to forces
     atom    1 type  2   force =     0.00000000   -0.00000000    0.00000000
     atom    2 type  1   force =     0.00000000   -0.00000000   -0.00000000

     Total force =     0.000000     Total SCF correction =     0.000000


     Computing stress (Cartesian axis) and pressure

          total   stress  (Ry/bohr**3)                   (kbar)     P=     -204.05
  -0.00100630  -0.00000000   0.00000000         -148.03       -0.00        0.00
  -0.00000000  -0.00100630   0.00000000           -0.00     -148.03        0.00
  -0.00000000  -0.00000000  -0.00214878           -0.00       -0.00     -316.10

     kinetic stress (kbar)   3051.71      0.00     -0.00
                                0.00   3051.71      0.00
                               -0.00      0.00   3277.87

     local   stress (kbar) -47131.24      0.00      0.00
                                0.00 -47131.24     -0.00
                                0.00     -0.00  47604.52

     nonloc. stress (kbar)   -284.53      0.00      0.00
                                0.00   -284.53      0.00
                                0.00      0.00   -251.59

     hartree stress (kbar)  22232.73     -0.00      0.00
                               -0.00  22232.73      0.00
                                0.00      0.00 -21769.32

     exc-cor stress (kbar)   -333.86     -0.00     -0.00
                               -0.00   -333.86      0.00
                               -0.00      0.00   -356.54

     corecor stress (kbar)   -352.50      0.00     -0.00
                                0.00   -352.50     -0.00
                               -0.00     -0.00   -338.67

     ewald   stress (kbar)  22669.65     -0.00     -0.00
                               -0.00  22669.65     -0.00
                               -0.00     -0.00 -28482.36

     hubbard stress (kbar)      0.00      0.00      0.00
                                0.00      0.00      0.00
                                0.00      0.00      0.00

     DFT-D   stress (kbar)      0.00      0.00      0.00
                                0.00      0.00      0.00
                                0.00      0.00      0.00

     XDM     stress (kbar)      0.00      0.00      0.00
                                0.00      0.00      0.00
                                0.00      0.00      0.00

     dft-nl  stress (kbar)      0.00      0.00      0.00
                                0.00      0.00      0.00
                                0.00      0.00      0.00

     TS-vdW  stress (kbar)      0.00      0.00      0.00
                                0.00      0.00      0.00
                                0.00      0.00      0.00



     Writing output data file ./tmp/hBN.save/

     init_run     :      0.53s CPU      0.27s WALL (       1 calls)
     electrons    :     11.30s CPU      4.56s WALL (       1 calls)
     forces       :      0.18s CPU      0.06s WALL (       1 calls)
     stress       :      0.85s CPU      0.33s WALL (       1 calls)

     Called by init_run:
     wfcinit      :      0.48s CPU      0.21s WALL (       1 calls)
     wfcinit:atom :      0.03s CPU      0.01s WALL (     102 calls)
     wfcinit:wfcr :      0.33s CPU      0.15s WALL (     102 calls)
     potinit      :      0.01s CPU      0.01s WALL (       1 calls)
     hinit0       :      0.04s CPU      0.04s WALL (       1 calls)

     Called by electrons:
     c_bands      :      9.75s CPU      3.94s WALL (       6 calls)
     sum_band     :      1.45s CPU      0.58s WALL (       6 calls)
     v_of_rho     :      0.08s CPU      0.04s WALL (       7 calls)
     v_h          :      0.00s CPU      0.00s WALL (       7 calls)
     v_xc         :      0.11s CPU      0.05s WALL (       9 calls)
     mix_rho      :      0.02s CPU      0.01s WALL (       6 calls)

     Called by c_bands:
     init_us_2    :      0.62s CPU      0.24s WALL (    1530 calls)
     cegterg      :      8.85s CPU      3.59s WALL (     612 calls)

     Called by sum_band:
     sum_band:wei :      0.00s CPU      0.00s WALL (       6 calls)
     sum_band:loo :      1.44s CPU      0.57s WALL (       6 calls)
     sum_band:buf :      0.03s CPU      0.01s WALL (     612 calls)
     sum_band:ini :      0.25s CPU      0.10s WALL (     612 calls)

     Called by *egterg:
     cdiaghg      :      0.65s CPU      0.24s WALL (    3348 calls)
     cegterg:over :      0.34s CPU      0.13s WALL (    2736 calls)
     cegterg:upda :      0.24s CPU      0.09s WALL (    2736 calls)
     cegterg:last :      0.19s CPU      0.10s WALL (    1553 calls)
     h_psi        :      7.39s CPU      3.04s WALL (    3450 calls)
     g_psi        :      0.13s CPU      0.05s WALL (    2736 calls)

     Called by h_psi:
     h_psi:calbec :      0.72s CPU      0.45s WALL (    3450 calls)
     vloc_psi     :      6.37s CPU      2.48s WALL (    3450 calls)
     add_vuspsi   :      0.18s CPU      0.07s WALL (    3450 calls)

     General routines
     calbec       :      0.81s CPU      0.49s WALL (    3960 calls)
     fft          :      0.03s CPU      0.02s WALL (      94 calls)
     ffts         :      0.00s CPU      0.00s WALL (       6 calls)
     fftw         :      5.08s CPU      1.98s WALL (   36478 calls)

     Parallel routines

     PWSCF        :     13.01s CPU      5.32s WALL


   This run was terminated on:  14:51:10  14Feb2024            

=------------------------------------------------------------------------------=
   JOB DONE.
=------------------------------------------------------------------------------=
