
     Program PWSCF v.6.7MaX starts on 14Feb2024 at 14:50:49 

     This program is part of the open-source Quantum ESPRESSO suite
     for quantum simulation of materials; please cite
         "P. Giannozzi et al., J. Phys.:Condens. Matter 21 395502 (2009);
         "P. Giannozzi et al., J. Phys.:Condens. Matter 29 465901 (2017);
          URL http://www.quantum-espresso.org", 
     in publications or presentations arising from this work. More details at
     http://www.quantum-espresso.org/quote

     Parallel version (MPI), running on     1 processors

     MPI processes distributed on     1 nodes
     Waiting for input...
     Reading input from standard input

     Current dimensions of program PWSCF are:
     Max number of different atomic species (ntypx) = 10
     Max number of k-points (npk) =  40000
     Max angular momentum in pseudopotentials (lmaxx) =  3
     Message from routine read_pp_mesh:
     mesh size missing, using the one in header
     Message from routine read_pp_mesh:
     mesh size missing, using the one in header

     Subspace diagonalization in iterative solution of the eigenvalue problem:
     a serial algorithm will be used


     G-vector sticks info
     --------------------
     sticks:   dense  smooth     PW     G-vecs:    dense   smooth      PW
     Sum         121     121     37                 6307     6307    1307



     bravais-lattice index     =            4
     lattice parameter (alat)  =       4.6350  a.u.
     unit-cell volume          =     517.4056 (a.u.)^3
     number of atoms/cell      =            2
     number of atomic types    =            2
     number of electrons       =         8.00
     number of Kohn-Sham states=            8
     kinetic-energy cutoff     =      20.0000  Ry
     charge density cutoff     =      80.0000  Ry
     scf convergence threshold =      1.0E-06
     mixing beta               =       0.7000
     number of iterations used =            8  plain     mixing
     Exchange-correlation= PBE
                           (   1   4   3   4   0   0   0)

     celldm(1)=   4.635000  celldm(2)=   0.000000  celldm(3)=   6.000000
     celldm(4)=   0.000000  celldm(5)=   0.000000  celldm(6)=   0.000000

     crystal axes: (cart. coord. in units of alat)
               a(1) = (   1.000000   0.000000   0.000000 )  
               a(2) = (  -0.500000   0.866025   0.000000 )  
               a(3) = (   0.000000   0.000000   6.000000 )  

     reciprocal axes: (cart. coord. in units 2 pi/alat)
               b(1) = (  1.000000  0.577350 -0.000000 )  
               b(2) = (  0.000000  1.154701  0.000000 )  
               b(3) = (  0.000000 -0.000000  0.166667 )  


     PseudoPot. # 1 for N  read from file:
     ../../../../Pseudo/PBE/N.upf
     MD5 check sum: d34365f73bb0e2ee98afc20ec3e87676
     Pseudo is Norm-conserving + core correction, Zval =  5.0
     Generated using ONCVPSP code by D. R. Hamann
     Using radial grid of 1058 points,  4 beta functions with: 
                l(1) =   0
                l(2) =   0
                l(3) =   1
                l(4) =   1

     PseudoPot. # 2 for B  read from file:
     ../../../../Pseudo/PBE/B.upf
     MD5 check sum: 72f82fc31bc892420d0cab7e25c88ab8
     Pseudo is Norm-conserving + core correction, Zval =  3.0
     Generated using ONCVPSP code by D. R. Hamann
     Using radial grid of 1534 points,  4 beta functions with: 
                l(1) =   0
                l(2) =   0
                l(3) =   1
                l(4) =   1

     atomic species   valence    mass     pseudopotential
        N              5.00    14.00670     N ( 1.00)
        B              3.00    10.80100     B ( 1.00)

     12 Sym. Ops. (no inversion) found


                                    s                        frac. trans.

      isym =  1     identity                                     

 cryst.   s( 1) = (     1          0          0      )
                  (     0          1          0      )
                  (     0          0          1      )

 cart.    s( 1) = (  1.0000000  0.0000000  0.0000000 )
                  (  0.0000000  1.0000000  0.0000000 )
                  (  0.0000000  0.0000000  1.0000000 )


      isym =  2     180 deg rotation - cart. axis [0,1,0]        

 cryst.   s( 2) = (    -1          0          0      )
                  (     1          1          0      )
                  (     0          0         -1      )

 cart.    s( 2) = ( -1.0000000  0.0000000  0.0000000 )
                  (  0.0000000  1.0000000  0.0000000 )
                  (  0.0000000  0.0000000 -1.0000000 )


      isym =  3     120 deg rotation - cryst. axis [0,0,1]       

 cryst.   s( 3) = (     0          1          0      )
                  (    -1         -1          0      )
                  (     0          0          1      )

 cart.    s( 3) = ( -0.5000000 -0.8660254  0.0000000 )
                  (  0.8660254 -0.5000000  0.0000000 )
                  (  0.0000000  0.0000000  1.0000000 )


      isym =  4     120 deg rotation - cryst. axis [0,0,-1]      

 cryst.   s( 4) = (    -1         -1          0      )
                  (     1          0          0      )
                  (     0          0          1      )

 cart.    s( 4) = ( -0.5000000  0.8660254  0.0000000 )
                  ( -0.8660254 -0.5000000  0.0000000 )
                  (  0.0000000  0.0000000  1.0000000 )


      isym =  5     180 deg rotation - cryst. axis [1,-1,0]      

 cryst.   s( 5) = (     0         -1          0      )
                  (    -1          0          0      )
                  (     0          0         -1      )

 cart.    s( 5) = (  0.5000000 -0.8660254  0.0000000 )
                  ( -0.8660254 -0.5000000  0.0000000 )
                  (  0.0000000  0.0000000 -1.0000000 )


      isym =  6     180 deg rotation - cryst. axis [2,1,0]       

 cryst.   s( 6) = (     1          1          0      )
                  (     0         -1          0      )
                  (     0          0         -1      )

 cart.    s( 6) = (  0.5000000  0.8660254  0.0000000 )
                  (  0.8660254 -0.5000000  0.0000000 )
                  (  0.0000000  0.0000000 -1.0000000 )


      isym =  7     inv. 180 deg rotation - cart. axis [0,0,1]   

 cryst.   s( 7) = (     1          0          0      )
                  (     0          1          0      )
                  (     0          0         -1      )

 cart.    s( 7) = (  1.0000000  0.0000000  0.0000000 )
                  (  0.0000000  1.0000000  0.0000000 )
                  (  0.0000000  0.0000000 -1.0000000 )


      isym =  8     inv. 180 deg rotation - cart. axis [1,0,0]   

 cryst.   s( 8) = (    -1          0          0      )
                  (     1          1          0      )
                  (     0          0          1      )

 cart.    s( 8) = ( -1.0000000  0.0000000  0.0000000 )
                  (  0.0000000  1.0000000  0.0000000 )
                  (  0.0000000  0.0000000  1.0000000 )


      isym =  9     inv.  60 deg rotation - cryst. axis [0,0,1]  

 cryst.   s( 9) = (    -1         -1          0      )
                  (     1          0          0      )
                  (     0          0         -1      )

 cart.    s( 9) = ( -0.5000000  0.8660254  0.0000000 )
                  ( -0.8660254 -0.5000000  0.0000000 )
                  (  0.0000000  0.0000000 -1.0000000 )


      isym = 10     inv.  60 deg rotation - cryst. axis [0,0,-1] 

 cryst.   s(10) = (     0          1          0      )
                  (    -1         -1          0      )
                  (     0          0         -1      )

 cart.    s(10) = ( -0.5000000 -0.8660254  0.0000000 )
                  (  0.8660254 -0.5000000  0.0000000 )
                  (  0.0000000  0.0000000 -1.0000000 )


      isym = 11     inv. 180 deg rotation - cryst. axis [0,1,0]  

 cryst.   s(11) = (     1          1          0      )
                  (     0         -1          0      )
                  (     0          0          1      )

 cart.    s(11) = (  0.5000000  0.8660254  0.0000000 )
                  (  0.8660254 -0.5000000  0.0000000 )
                  (  0.0000000  0.0000000  1.0000000 )


      isym = 12     inv. 180 deg rotation - cryst. axis [1,1,0]  

 cryst.   s(12) = (     0         -1          0      )
                  (    -1          0          0      )
                  (     0          0          1      )

 cart.    s(12) = (  0.5000000 -0.8660254  0.0000000 )
                  ( -0.8660254 -0.5000000  0.0000000 )
                  (  0.0000000  0.0000000  1.0000000 )


     point group D_3h (-62m)
     there are  6 classes
     the character table:

       E     2C3   3C2   s_h   2S3   3s_v 
A'_1   1.00  1.00  1.00  1.00  1.00  1.00
A'_2   1.00  1.00 -1.00  1.00  1.00 -1.00
E'     2.00 -1.00  0.00  2.00 -1.00  0.00
A''1   1.00  1.00  1.00 -1.00 -1.00 -1.00
A''2   1.00  1.00 -1.00 -1.00 -1.00  1.00
E''    2.00 -1.00  0.00 -2.00  1.00  0.00

     the symmetry operations in each class and the name of the first element:

     E        1
          identity                                               
     2C3      3    4
          120 deg rotation - cryst. axis [0,0,1]                 
     3C2      2    6    5
          180 deg rotation - cart. axis [0,1,0]                  
     s_h      7
          inv. 180 deg rotation - cart. axis [0,0,1]             
     2S3      9   10
          inv.  60 deg rotation - cryst. axis [0,0,1]            
     3s_v     8   11   12
          inv. 180 deg rotation - cart. axis [1,0,0]             

   Cartesian axes

     site n.     atom                  positions (alat units)
         1           B   tau(   1) = (   0.0000000   0.0000000   0.0000000  )
         2           N   tau(   2) = (  -0.0000000   0.5773503   0.0000000  )

   Crystallographic axes

     site n.     atom                  positions (cryst. coord.)
         1           B   tau(   1) = (  0.0000000  0.0000000  0.0000000  )
         2           N   tau(   2) = (  0.3333333  0.6666667  0.0000000  )

     number of k points=    44  Marzari-Vanderbilt smearing, width (Ry)=  0.0100
                       cart. coord. in units 2pi/alat
        k(    1) = (   0.0000000   0.0000000   0.0000000), wk =   0.0050000
        k(    2) = (   0.0000000   0.0577350   0.0000000), wk =   0.0300000
        k(    3) = (   0.0000000   0.1154701   0.0000000), wk =   0.0300000
        k(    4) = (   0.0000000   0.1732051   0.0000000), wk =   0.0300000
        k(    5) = (   0.0000000   0.2309401   0.0000000), wk =   0.0300000
        k(    6) = (   0.0000000   0.2886751   0.0000000), wk =   0.0300000
        k(    7) = (   0.0000000   0.3464102   0.0000000), wk =   0.0300000
        k(    8) = (   0.0000000   0.4041452   0.0000000), wk =   0.0300000
        k(    9) = (   0.0000000   0.4618802   0.0000000), wk =   0.0300000
        k(   10) = (   0.0000000   0.5196152   0.0000000), wk =   0.0300000
        k(   11) = (   0.0000000  -0.5773503   0.0000000), wk =   0.0150000
        k(   12) = (   0.0500000   0.0866025   0.0000000), wk =   0.0300000
        k(   13) = (   0.0500000   0.1443376   0.0000000), wk =   0.0600000
        k(   14) = (   0.0500000   0.2020726   0.0000000), wk =   0.0600000
        k(   15) = (   0.0500000   0.2598076   0.0000000), wk =   0.0600000
        k(   16) = (   0.0500000   0.3175426   0.0000000), wk =   0.0600000
        k(   17) = (   0.0500000   0.3752777   0.0000000), wk =   0.0600000
        k(   18) = (   0.0500000   0.4330127   0.0000000), wk =   0.0600000
        k(   19) = (   0.0500000   0.4907477   0.0000000), wk =   0.0600000
        k(   20) = (   0.0500000   0.5484828   0.0000000), wk =   0.0600000
        k(   21) = (   0.1000000   0.1732051   0.0000000), wk =   0.0300000
        k(   22) = (   0.1000000   0.2309401   0.0000000), wk =   0.0600000
        k(   23) = (   0.1000000   0.2886751   0.0000000), wk =   0.0600000
        k(   24) = (   0.1000000   0.3464102   0.0000000), wk =   0.0600000
        k(   25) = (   0.1000000   0.4041452   0.0000000), wk =   0.0600000
        k(   26) = (   0.1000000   0.4618802   0.0000000), wk =   0.0600000
        k(   27) = (   0.1000000   0.5196152   0.0000000), wk =   0.0600000
        k(   28) = (   0.1000000   0.5773503   0.0000000), wk =   0.0300000
        k(   29) = (   0.1500000   0.2598076   0.0000000), wk =   0.0300000
        k(   30) = (   0.1500000   0.3175426   0.0000000), wk =   0.0600000
        k(   31) = (   0.1500000   0.3752777   0.0000000), wk =   0.0600000
        k(   32) = (   0.1500000   0.4330127   0.0000000), wk =   0.0600000
        k(   33) = (   0.1500000   0.4907477   0.0000000), wk =   0.0600000
        k(   34) = (   0.1500000   0.5484828   0.0000000), wk =   0.0600000
        k(   35) = (   0.2000000   0.3464102   0.0000000), wk =   0.0300000
        k(   36) = (   0.2000000   0.4041452   0.0000000), wk =   0.0600000
        k(   37) = (   0.2000000   0.4618802   0.0000000), wk =   0.0600000
        k(   38) = (   0.2000000   0.5196152   0.0000000), wk =   0.0600000
        k(   39) = (   0.2000000   0.5773503   0.0000000), wk =   0.0300000
        k(   40) = (   0.2500000   0.4330127   0.0000000), wk =   0.0300000
        k(   41) = (   0.2500000   0.4907477   0.0000000), wk =   0.0600000
        k(   42) = (   0.2500000   0.5484828   0.0000000), wk =   0.0600000
        k(   43) = (   0.3000000   0.5196152   0.0000000), wk =   0.0300000
        k(   44) = (   0.3000000   0.5773503   0.0000000), wk =   0.0300000

                       cryst. coord.
        k(    1) = (   0.0000000   0.0000000   0.0000000), wk =   0.0050000
        k(    2) = (   0.0000000   0.0500000   0.0000000), wk =   0.0300000
        k(    3) = (   0.0000000   0.1000000   0.0000000), wk =   0.0300000
        k(    4) = (   0.0000000   0.1500000   0.0000000), wk =   0.0300000
        k(    5) = (   0.0000000   0.2000000   0.0000000), wk =   0.0300000
        k(    6) = (   0.0000000   0.2500000   0.0000000), wk =   0.0300000
        k(    7) = (   0.0000000   0.3000000   0.0000000), wk =   0.0300000
        k(    8) = (   0.0000000   0.3500000   0.0000000), wk =   0.0300000
        k(    9) = (   0.0000000   0.4000000   0.0000000), wk =   0.0300000
        k(   10) = (   0.0000000   0.4500000   0.0000000), wk =   0.0300000
        k(   11) = (   0.0000000  -0.5000000   0.0000000), wk =   0.0150000
        k(   12) = (   0.0500000   0.0500000   0.0000000), wk =   0.0300000
        k(   13) = (   0.0500000   0.1000000   0.0000000), wk =   0.0600000
        k(   14) = (   0.0500000   0.1500000   0.0000000), wk =   0.0600000
        k(   15) = (   0.0500000   0.2000000   0.0000000), wk =   0.0600000
        k(   16) = (   0.0500000   0.2500000   0.0000000), wk =   0.0600000
        k(   17) = (   0.0500000   0.3000000   0.0000000), wk =   0.0600000
        k(   18) = (   0.0500000   0.3500000   0.0000000), wk =   0.0600000
        k(   19) = (   0.0500000   0.4000000   0.0000000), wk =   0.0600000
        k(   20) = (   0.0500000   0.4500000   0.0000000), wk =   0.0600000
        k(   21) = (   0.1000000   0.1000000   0.0000000), wk =   0.0300000
        k(   22) = (   0.1000000   0.1500000   0.0000000), wk =   0.0600000
        k(   23) = (   0.1000000   0.2000000   0.0000000), wk =   0.0600000
        k(   24) = (   0.1000000   0.2500000   0.0000000), wk =   0.0600000
        k(   25) = (   0.1000000   0.3000000   0.0000000), wk =   0.0600000
        k(   26) = (   0.1000000   0.3500000   0.0000000), wk =   0.0600000
        k(   27) = (   0.1000000   0.4000000   0.0000000), wk =   0.0600000
        k(   28) = (   0.1000000   0.4500000   0.0000000), wk =   0.0300000
        k(   29) = (   0.1500000   0.1500000   0.0000000), wk =   0.0300000
        k(   30) = (   0.1500000   0.2000000   0.0000000), wk =   0.0600000
        k(   31) = (   0.1500000   0.2500000   0.0000000), wk =   0.0600000
        k(   32) = (   0.1500000   0.3000000   0.0000000), wk =   0.0600000
        k(   33) = (   0.1500000   0.3500000   0.0000000), wk =   0.0600000
        k(   34) = (   0.1500000   0.4000000   0.0000000), wk =   0.0600000
        k(   35) = (   0.2000000   0.2000000   0.0000000), wk =   0.0300000
        k(   36) = (   0.2000000   0.2500000   0.0000000), wk =   0.0600000
        k(   37) = (   0.2000000   0.3000000   0.0000000), wk =   0.0600000
        k(   38) = (   0.2000000   0.3500000   0.0000000), wk =   0.0600000
        k(   39) = (   0.2000000   0.4000000   0.0000000), wk =   0.0300000
        k(   40) = (   0.2500000   0.2500000   0.0000000), wk =   0.0300000
        k(   41) = (   0.2500000   0.3000000   0.0000000), wk =   0.0600000
        k(   42) = (   0.2500000   0.3500000   0.0000000), wk =   0.0600000
        k(   43) = (   0.3000000   0.3000000   0.0000000), wk =   0.0300000
        k(   44) = (   0.3000000   0.3500000   0.0000000), wk =   0.0300000

     Dense  grid:     6307 G-vectors     FFT dimensions: (  15,  15,  80)

     Dynamical RAM for                 wfc:       0.10 MB

     Dynamical RAM for     wfc (w. buffer):       4.29 MB

     Dynamical RAM for           str. fact:       0.19 MB

     Dynamical RAM for           local pot:       0.00 MB

     Dynamical RAM for          nlocal pot:       0.19 MB

     Dynamical RAM for                qrad:       0.41 MB

     Dynamical RAM for          rho,v,vnew:       0.70 MB

     Dynamical RAM for               rhoin:       0.23 MB

     Dynamical RAM for            rho*nmix:       1.54 MB

     Dynamical RAM for           G-vectors:       0.41 MB

     Dynamical RAM for          h,s,v(r/c):       0.01 MB

     Dynamical RAM for          <psi|beta>:       0.00 MB

     Dynamical RAM for                 psi:       0.19 MB

     Dynamical RAM for                hpsi:       0.19 MB

     Dynamical RAM for      wfcinit/wfcrot:       0.19 MB

     Estimated static dynamical RAM per process >       8.94 MB

     Estimated max dynamical RAM per process >       9.34 MB

     Check: negative core charge=   -0.000497

     Initial potential from superposition of free atoms

     starting charge    7.99974, renormalised to    8.00000

     negative rho (up, down):  2.216E-02 0.000E+00
     Starting wfcs are    8 randomized atomic wfcs

     total cpu time spent up to now is        0.2 secs

     Self-consistent Calculation

     iteration #  1     ecut=    20.00 Ry     beta= 0.70
     Davidson diagonalization with overlap
     ethr =  1.00E-02,  avg # of iterations =  8.8

     negative rho (up, down):  6.111E-03 0.000E+00

     total cpu time spent up to now is        0.6 secs

     total energy              =     -25.92108565 Ry
     estimated scf accuracy    <       0.15644803 Ry

     iteration #  2     ecut=    20.00 Ry     beta= 0.70
     Davidson diagonalization with overlap
     ethr =  1.96E-03,  avg # of iterations =  4.1

     negative rho (up, down):  7.914E-04 0.000E+00

     total cpu time spent up to now is        0.9 secs

     total energy              =     -25.93068246 Ry
     estimated scf accuracy    <       0.00754489 Ry

     iteration #  3     ecut=    20.00 Ry     beta= 0.70
     Davidson diagonalization with overlap
     ethr =  9.43E-05,  avg # of iterations =  5.6

     negative rho (up, down):  7.336E-05 0.000E+00

     total cpu time spent up to now is        1.2 secs

     total energy              =     -25.93131450 Ry
     estimated scf accuracy    <       0.00094592 Ry

     iteration #  4     ecut=    20.00 Ry     beta= 0.70
     Davidson diagonalization with overlap
     ethr =  1.18E-05,  avg # of iterations =  3.2

     total cpu time spent up to now is        1.5 secs

     total energy              =     -25.93141567 Ry
     estimated scf accuracy    <       0.00002628 Ry

     iteration #  5     ecut=    20.00 Ry     beta= 0.70
     Davidson diagonalization with overlap
     ethr =  3.28E-07,  avg # of iterations =  2.8

     total cpu time spent up to now is        1.7 secs

     total energy              =     -25.93142303 Ry
     estimated scf accuracy    <       0.00000447 Ry

     iteration #  6     ecut=    20.00 Ry     beta= 0.70
     Davidson diagonalization with overlap
     ethr =  5.59E-08,  avg # of iterations =  1.3

     total cpu time spent up to now is        2.0 secs

     End of self-consistent calculation

          k = 0.0000 0.0000 0.0000 (   801 PWs)   bands (ev):

   -22.6637  -9.1264  -4.5300  -4.5300  -0.6567   0.0381   0.4456   2.5924

     occupation numbers 
     1.0000   1.0000   1.0000   1.0000   0.0000   0.0000   0.0000   0.0000

          k = 0.0000 0.0577 0.0000 (   795 PWs)   bands (ev):

   -22.6066  -9.0459  -4.7379  -4.6167  -0.5708   0.1209   0.5324   2.6739

     occupation numbers 
     1.0000   1.0000   1.0000   1.0000   0.0000   0.0000   0.0000   0.0000

          k = 0.0000 0.1155 0.0000 (   795 PWs)   bands (ev):

   -22.4533  -8.8562  -5.3911  -4.9201  -0.3161   0.3662   0.7897   2.9090

     occupation numbers 
     1.0000   1.0000   1.0000   1.0000   0.0000   0.0000   0.0000   0.0000

          k = 0.0000 0.1732 0.0000 (   796 PWs)   bands (ev):

   -22.2029  -8.5124  -6.3838  -5.3222   0.1020   0.7758   1.2087   3.3016

     occupation numbers 
     1.0000   1.0000   1.0000   1.0000   0.0000   0.0000   0.0000   0.0000

          k = 0.0000 0.2309 0.0000 (   782 PWs)   bands (ev):

   -21.8537  -8.0074  -7.4240  -5.7760   0.6833   1.3488   1.7877   3.8431

     occupation numbers 
     1.0000   1.0000   1.0000   1.0000   0.0000   0.0000   0.0000   0.0000

          k = 0.0000 0.2887 0.0000 (   780 PWs)   bands (ev):

   -21.4347  -8.6176  -7.4110  -6.3432   1.4271   2.0766   2.5253   4.4810

     occupation numbers 
     1.0000   1.0000   1.0000   1.0000   0.0000   0.0000   0.0000   0.0000

          k = 0.0000 0.3464 0.0000 (   770 PWs)   bands (ev):

   -20.9379  -9.7945  -6.7381  -6.6968   2.3327   2.9374   3.4192   4.9048

     occupation numbers 
     1.0000   1.0000   1.0000   1.0000   0.0000   0.0000   0.0000   0.0000

          k = 0.0000 0.4041 0.0000 (   780 PWs)   bands (ev):

   -20.4502 -10.9630  -7.1478  -5.9206   3.3954   3.5715   4.4586   4.5335

     occupation numbers 
     1.0000   1.0000   1.0000   1.0000   0.0000   0.0000   0.0000   0.0000

          k = 0.0000 0.4619 0.0000 (   792 PWs)   bands (ev):

   -19.9714 -11.9566  -7.4825  -5.1524   2.7341   4.6030   5.4361   5.6065

     occupation numbers 
     1.0000   1.0000   1.0000   1.0000   0.0000   0.0000   0.0000   0.0000

          k = 0.0000 0.5196 0.0000 (   788 PWs)   bands (ev):

   -19.5793 -12.6262  -7.6282  -4.5033   1.8650   5.8661   6.6353   6.7875

     occupation numbers 
     1.0000   1.0000   1.0000   1.0000   0.0000   0.0000   0.0000   0.0000

          k = 0.0000-0.5774 0.0000 (   782 PWs)   bands (ev):

   -19.4338 -12.8594  -7.6813  -4.1940   1.5299   6.4411   7.6517   7.8832

     occupation numbers 
     1.0000   1.0000   1.0000   1.0000   0.0000   0.0000   0.0000   0.0000

          k = 0.0500 0.0866 0.0000 (   791 PWs)   bands (ev):

   -22.5007  -8.9164  -5.1350  -4.8009  -0.4005   0.2846   0.7046   2.8312

     occupation numbers 
     1.0000   1.0000   1.0000   1.0000   0.0000   0.0000   0.0000   0.0000

          k = 0.0500 0.1443 0.0000 (   795 PWs)   bands (ev):

   -22.2983  -8.6488  -5.9485  -5.2558  -0.0642   0.6121   1.0428   3.1454

     occupation numbers 
     1.0000   1.0000   1.0000   1.0000   0.0000   0.0000   0.0000   0.0000

          k = 0.0500 0.2021 0.0000 (   782 PWs)   bands (ev):

   -21.9942  -8.2083  -6.8943  -5.6979   0.4359   1.1047   1.5429   3.6163

     occupation numbers 
     1.0000   1.0000   1.0000   1.0000   0.0000   0.0000   0.0000   0.0000

          k = 0.0500 0.2598 0.0000 (   780 PWs)   bands (ev):

   -21.6190  -8.0235  -7.6739  -6.2130   1.0981   1.7546   2.2009   4.2103

     occupation numbers 
     1.0000   1.0000   1.0000   1.0000   0.0000   0.0000   0.0000   0.0000

          k = 0.0500 0.3175 0.0000 (   774 PWs)   bands (ev):

   -21.1644  -9.2050  -7.0072  -6.6869   1.9234   2.5553   3.0182   4.8241

     occupation numbers 
     1.0000   1.0000   1.0000   1.0000   0.0000   0.0000   0.0000   0.0000

          k = 0.0500 0.3753 0.0000 (   775 PWs)   bands (ev):

   -20.6650 -10.3879  -7.0935  -6.2708   2.9093   3.4171   3.9892   4.7032

     occupation numbers 
     1.0000   1.0000   1.0000   1.0000   0.0000   0.0000   0.0000   0.0000

          k = 0.0500 0.4330 0.0000 (   775 PWs)   bands (ev):

   -20.1557 -11.4518  -7.4397  -5.4684   3.2694   4.0512   4.9224   5.1010

     occupation numbers 
     1.0000   1.0000   1.0000   1.0000   0.0000   0.0000   0.0000   0.0000

          k = 0.0500 0.4907 0.0000 (   782 PWs)   bands (ev):

   -19.7158 -12.3079  -7.6747  -4.7403   2.2821   5.3244   6.1440   6.2778

     occupation numbers 
     1.0000   1.0000   1.0000   1.0000   0.0000   0.0000   0.0000   0.0000

          k = 0.0500 0.5485 0.0000 (   782 PWs)   bands (ev):

   -19.4449 -12.7698  -7.8068  -4.2369   1.6346   6.4856   7.2145   7.5899

     occupation numbers 
     1.0000   1.0000   1.0000   1.0000   0.0000   0.0000   0.0000   0.0000

          k = 0.1000 0.1732 0.0000 (   803 PWs)   bands (ev):

   -22.0631  -8.3150  -6.7483  -5.8037   0.3530   1.0205   1.4604   3.5325

     occupation numbers 
     1.0000   1.0000   1.0000   1.0000   0.0000   0.0000   0.0000   0.0000

          k = 0.1000 0.2309 0.0000 (   782 PWs)   bands (ev):

   -21.7207  -7.8094  -7.5844  -6.3147   0.9345   1.5930   2.0404   4.0688

     occupation numbers 
     1.0000   1.0000   1.0000   1.0000   0.0000   0.0000   0.0000   0.0000

          k = 0.1000 0.2887 0.0000 (   780 PWs)   bands (ev):

   -21.3111  -8.7070  -7.2147  -6.8621   1.6792   2.3182   2.7805   4.6816

     occupation numbers 
     1.0000   1.0000   1.0000   1.0000   0.0000   0.0000   0.0000   0.0000

          k = 0.1000 0.3464 0.0000 (   780 PWs)   bands (ev):

   -20.8390  -9.8531  -7.3364  -6.5180   2.5863   3.1662   3.6788   4.9543

     occupation numbers 
     1.0000   1.0000   1.0000   1.0000   0.0000   0.0000   0.0000   0.0000

          k = 0.1000 0.4041 0.0000 (   785 PWs)   bands (ev):

   -20.3341 -10.9411  -7.7499  -5.7562   3.6179   3.6541   4.6581   4.7307

     occupation numbers 
     1.0000   1.0000   1.0000   1.0000   0.0000   0.0000   0.0000   0.0000

          k = 0.1000 0.4619 0.0000 (   779 PWs)   bands (ev):

   -19.8438 -11.8575  -8.0110  -4.9678   2.7618   4.8766   5.6650   5.9214

     occupation numbers 
     1.0000   1.0000   1.0000   1.0000   0.0000   0.0000   0.0000   0.0000

          k = 0.1000 0.5196 0.0000 (   777 PWs)   bands (ev):

   -19.4685 -12.5064  -8.1818  -4.3114   1.9087   6.2228   7.0163   7.1468

     occupation numbers 
     1.0000   1.0000   1.0000   1.0000   0.0000   0.0000   0.0000   0.0000

          k = 0.1000 0.5774 0.0000 (   776 PWs)   bands (ev):

   -19.3237 -12.7411  -8.2435  -4.0493   1.5682   7.2082   7.8948   8.2447

     occupation numbers 
     1.0000   1.0000   1.0000   1.0000   0.0000   0.0000   0.0000   0.0000

          k = 0.1500 0.2598 0.0000 (   785 PWs)   bands (ev):

   -21.3570  -8.4944  -7.2763  -6.9845   1.5983   2.2386   2.7022   4.6237

     occupation numbers 
     1.0000   1.0000   1.0000   1.0000   0.0000   0.0000   0.0000   0.0000

          k = 0.1500 0.3175 0.0000 (   782 PWs)   bands (ev):

   -20.9239  -9.4531  -7.6067  -6.6365   2.4253   3.0227   3.5240   5.0263

     occupation numbers 
     1.0000   1.0000   1.0000   1.0000   0.0000   0.0000   0.0000   0.0000

          k = 0.1500 0.3753 0.0000 (   780 PWs)   bands (ev):

   -20.4304 -10.4628  -8.0987  -5.9082   3.4160   3.7463   4.5068   4.7005

     occupation numbers 
     1.0000   1.0000   1.0000   1.0000   0.0000   0.0000   0.0000   0.0000

          k = 0.1500 0.4330 0.0000 (   774 PWs)   bands (ev):

   -19.9339 -11.3470  -8.4461  -5.1420   3.1996   4.5664   5.3561   5.6424

     occupation numbers 
     1.0000   1.0000   1.0000   1.0000   0.0000   0.0000   0.0000   0.0000

          k = 0.1500 0.4907 0.0000 (   776 PWs)   bands (ev):

   -19.5086 -12.1094  -8.7364  -4.4102   2.2872   5.8713   6.6009   6.9178

     occupation numbers 
     1.0000   1.0000   1.0000   1.0000   0.0000   0.0000   0.0000   0.0000

          k = 0.1500 0.5485 0.0000 (   772 PWs)   bands (ev):

   -19.2440 -12.5299  -8.8486  -3.9249   1.7111   7.2990   8.0168   8.2042

     occupation numbers 
     1.0000   1.0000   1.0000   1.0000   0.0000   0.0000   0.0000   0.0000

          k = 0.2000 0.3464 0.0000 (   775 PWs)   bands (ev):

   -20.4681 -10.2204  -8.2853  -5.9540   3.3358   3.7500   4.4303   4.7871

     occupation numbers 
     1.0000   1.0000   1.0000   1.0000   0.0000   0.0000   0.0000   0.0000

          k = 0.2000 0.4041 0.0000 (   785 PWs)   bands (ev):

   -19.9986 -11.0281  -8.8973  -5.2379   3.4637   4.4081   5.2107   5.4944

     occupation numbers 
     1.0000   1.0000   1.0000   1.0000   0.0000   0.0000   0.0000   0.0000

          k = 0.2000 0.4619 0.0000 (   780 PWs)   bands (ev):

   -19.5508 -11.6897  -9.2906  -4.4911   2.6140   5.6407   6.3475   6.7131

     occupation numbers 
     1.0000   1.0000   1.0000   1.0000   0.0000   0.0000   0.0000   0.0000

          k = 0.2000 0.5196 0.0000 (   780 PWs)   bands (ev):

   -19.2098 -12.2064  -9.5449  -3.8930   1.9121   7.0274   7.6581   8.0729

     occupation numbers 
     1.0000   1.0000   1.0000   1.0000   0.0000   0.0000   0.0000   0.0000

          k = 0.2000 0.5774 0.0000 (   778 PWs)   bands (ev):

   -19.0773 -12.3951  -9.6141  -3.6461   1.6387   8.4521   8.6284   8.7476

     occupation numbers 
     1.0000   1.0000   1.0000   1.0000   0.0000   0.0000   0.0000   0.0000

          k = 0.2500 0.4330 0.0000 (   781 PWs)   bands (ev):

   -19.5599 -11.4968  -9.5666  -4.5122   2.7688   5.5633   6.2618   6.6422

     occupation numbers 
     1.0000   1.0000   1.0000   1.0000   0.0000   0.0000   0.0000   0.0000

          k = 0.2500 0.4907 0.0000 (   776 PWs)   bands (ev):

   -19.1889 -11.8862 -10.0021  -3.8614   2.0973   6.8756   7.4646   7.9407

     occupation numbers 
     1.0000   1.0000   1.0000   1.0000   0.0000   0.0000   0.0000   0.0000

          k = 0.2500 0.5485 0.0000 (   780 PWs)   bands (ev):

   -18.9748 -12.1339 -10.2607  -3.4596   1.6598   8.3333   8.4838   9.3614

     occupation numbers 
     1.0000   1.0000   1.0000   1.0000   0.0000   0.0000   0.0000   0.0000

          k = 0.3000 0.5196 0.0000 (   771 PWs)   bands (ev):

   -18.9235 -11.9436 -10.5111  -3.3646   1.6880   8.2611   8.3337   9.3075

     occupation numbers 
     1.0000   1.0000   1.0000   1.0000   0.0000   0.0000   0.0000   0.0000

          k = 0.3000 0.5774 0.0000 (   771 PWs)   bands (ev):

   -18.8354 -11.9430 -10.7287  -3.1872   1.5326   8.4535   9.6776   9.8613

     occupation numbers 
     1.0000   1.0000   1.0000   1.0000   0.0000   0.0000   0.0000   0.0000

     the Fermi energy is    -2.2676 ev

!    total energy              =     -25.93142318 Ry
     estimated scf accuracy    <       0.00000017 Ry
     smearing contrib. (-TS)   =       0.00000000 Ry
     internal energy E=F+TS    =     -25.93142318 Ry

     The total energy is F=E-TS. E is the sum of the following terms:
     one-electron contribution =    -156.50458214 Ry
     hartree contribution      =      79.82691244 Ry
     xc contribution           =      -8.54386695 Ry
     ewald contribution        =      59.29011347 Ry

     convergence has been achieved in   6 iterations

     Forces acting on atoms (cartesian axes, Ry/au):

     atom    1 type  2   force =     0.00000000    0.00000000    0.00000000
     atom    2 type  1   force =    -0.00000000   -0.00000000    0.00000000
     The non-local contrib.  to forces
     atom    1 type  2   force =     0.00000000   -0.00000000    0.00000000
     atom    2 type  1   force =    -0.00000000    0.00000000    0.00000000
     The ionic contribution  to forces
     atom    1 type  2   force =    -0.00000001    0.00000000   -0.00000000
     atom    2 type  1   force =     0.00000001   -0.00000000   -0.00000000
     The local contribution  to forces
     atom    1 type  2   force =    -0.00000000    0.00000000    0.00000000
     atom    2 type  1   force =     0.00000002   -0.00000001    0.00000000
     The core correction contribution to forces
     atom    1 type  2   force =     0.00000000   -0.00000000    0.00000000
     atom    2 type  1   force =    -0.00000000    0.00000000    0.00000000
     The Hubbard contrib.    to forces
     atom    1 type  2   force =     0.00000000    0.00000000    0.00000000
     atom    2 type  1   force =     0.00000000    0.00000000    0.00000000
     The SCF correction term to forces
     atom    1 type  2   force =     0.00000000   -0.00000000   -0.00000000
     atom    2 type  1   force =    -0.00000000    0.00000000   -0.00000000

     Total force =     0.000000     Total SCF correction =     0.000000


     Computing stress (Cartesian axis) and pressure

          total   stress  (Ry/bohr**3)                   (kbar)     P=     -204.12
  -0.00100726  -0.00000000   0.00000000         -148.17       -0.00        0.00
  -0.00000000  -0.00100726   0.00000000           -0.00     -148.17        0.00
  -0.00000000   0.00000000  -0.00214827           -0.00        0.00     -316.02

     kinetic stress (kbar)   3051.07      0.00      0.00
                                0.00   3051.07      0.00
                                0.00      0.00   3277.55

     local   stress (kbar) -47131.07      0.00      0.00
                                0.00 -47131.07     -0.00
                                0.00     -0.00  47604.33

     nonloc. stress (kbar)   -284.03      0.00      0.00
                                0.00   -284.03     -0.00
                                0.00     -0.00   -251.11

     hartree stress (kbar)  22232.53      0.00     -0.00
                                0.00  22232.53      0.00
                               -0.00      0.00 -21769.24

     exc-cor stress (kbar)   -333.85     -0.00     -0.00
                               -0.00   -333.85     -0.00
                               -0.00     -0.00   -356.53

     corecor stress (kbar)   -352.48      0.00      0.00
                                0.00   -352.48     -0.00
                                0.00     -0.00   -338.65

     ewald   stress (kbar)  22669.65     -0.00     -0.00
                               -0.00  22669.65     -0.00
                               -0.00     -0.00 -28482.36

     hubbard stress (kbar)      0.00      0.00      0.00
                                0.00      0.00      0.00
                                0.00      0.00      0.00

     DFT-D   stress (kbar)      0.00      0.00      0.00
                                0.00      0.00      0.00
                                0.00      0.00      0.00

     XDM     stress (kbar)      0.00      0.00      0.00
                                0.00      0.00      0.00
                                0.00      0.00      0.00

     dft-nl  stress (kbar)      0.00      0.00      0.00
                                0.00      0.00      0.00
                                0.00      0.00      0.00

     TS-vdW  stress (kbar)      0.00      0.00      0.00
                                0.00      0.00      0.00
                                0.00      0.00      0.00



     Writing output data file ./tmp/hBN.save/

     init_run     :      0.28s CPU      0.14s WALL (       1 calls)
     electrons    :      4.55s CPU      1.81s WALL (       1 calls)
     forces       :      0.10s CPU      0.04s WALL (       1 calls)
     stress       :      0.38s CPU      0.16s WALL (       1 calls)

     Called by init_run:
     wfcinit      :      0.23s CPU      0.09s WALL (       1 calls)
     wfcinit:atom :      0.01s CPU      0.01s WALL (      44 calls)
     wfcinit:wfcr :      0.16s CPU      0.06s WALL (      44 calls)
     potinit      :      0.01s CPU      0.01s WALL (       1 calls)
     hinit0       :      0.04s CPU      0.04s WALL (       1 calls)

     Called by electrons:
     c_bands      :      3.86s CPU      1.53s WALL (       6 calls)
     sum_band     :      0.57s CPU      0.24s WALL (       6 calls)
     v_of_rho     :      0.10s CPU      0.04s WALL (       7 calls)
     v_h          :      0.00s CPU      0.00s WALL (       7 calls)
     v_xc         :      0.14s CPU      0.05s WALL (       9 calls)
     mix_rho      :      0.00s CPU      0.00s WALL (       6 calls)

     Called by c_bands:
     init_us_2    :      0.25s CPU      0.10s WALL (     660 calls)
     cegterg      :      3.51s CPU      1.38s WALL (     264 calls)

     Called by sum_band:
     sum_band:wei :      0.00s CPU      0.00s WALL (       6 calls)
     sum_band:loo :      0.56s CPU      0.23s WALL (       6 calls)
     sum_band:buf :      0.01s CPU      0.00s WALL (     264 calls)
     sum_band:ini :      0.10s CPU      0.04s WALL (     264 calls)

     Called by *egterg:
     cdiaghg      :      0.26s CPU      0.10s WALL (    1398 calls)
     cegterg:over :      0.13s CPU      0.05s WALL (    1134 calls)
     cegterg:upda :      0.10s CPU      0.04s WALL (    1134 calls)
     cegterg:last :      0.08s CPU      0.04s WALL (     657 calls)
     h_psi        :      2.96s CPU      1.16s WALL (    1442 calls)
     g_psi        :      0.05s CPU      0.02s WALL (    1134 calls)

     Called by h_psi:
     h_psi:calbec :      0.19s CPU      0.09s WALL (    1442 calls)
     vloc_psi     :      2.66s CPU      1.02s WALL (    1442 calls)
     add_vuspsi   :      0.07s CPU      0.03s WALL (    1442 calls)

     General routines
     calbec       :      0.20s CPU      0.10s WALL (    1662 calls)
     fft          :      0.04s CPU      0.02s WALL (      94 calls)
     ffts         :      0.00s CPU      0.00s WALL (       6 calls)
     fftw         :      2.10s CPU      0.81s WALL (   15628 calls)

     Parallel routines

     PWSCF        :      5.44s CPU      2.23s WALL


   This run was terminated on:  14:50:51  14Feb2024            

=------------------------------------------------------------------------------=
   JOB DONE.
=------------------------------------------------------------------------------=
