
     Program PWSCF v.6.7MaX starts on 14Feb2024 at 12:35:10 

     This program is part of the open-source Quantum ESPRESSO suite
     for quantum simulation of materials; please cite
         "P. Giannozzi et al., J. Phys.:Condens. Matter 21 395502 (2009);
         "P. Giannozzi et al., J. Phys.:Condens. Matter 29 465901 (2017);
          URL http://www.quantum-espresso.org", 
     in publications or presentations arising from this work. More details at
     http://www.quantum-espresso.org/quote

     Parallel version (MPI), running on     1 processors

     MPI processes distributed on     1 nodes
     Waiting for input...
     Reading input from standard input

     Current dimensions of program PWSCF are:
     Max number of different atomic species (ntypx) = 10
     Max number of k-points (npk) =  40000
     Max angular momentum in pseudopotentials (lmaxx) =  3
     Message from routine read_pp_mesh:
     mesh size missing, using the one in header

     Subspace diagonalization in iterative solution of the eigenvalue problem:
     a serial algorithm will be used


     G-vector sticks info
     --------------------
     sticks:   dense  smooth     PW     G-vecs:    dense   smooth      PW
     Sum         361     361    109                32597    32597    5681



     bravais-lattice index     =            4
     lattice parameter (alat)  =       4.6350  a.u.
     unit-cell volume          =     517.4056 (a.u.)^3
     number of atoms/cell      =            2
     number of atomic types    =            1
     number of electrons       =         8.00
     number of Kohn-Sham states=            8
     kinetic-energy cutoff     =      60.0000  Ry
     charge density cutoff     =     240.0000  Ry
     scf convergence threshold =      1.0E-06
     mixing beta               =       0.7000
     number of iterations used =            8  plain     mixing
     Exchange-correlation= PZ
                           (   1   1   0   0   0   0   0)

     celldm(1)=   4.635000  celldm(2)=   0.000000  celldm(3)=   6.000000
     celldm(4)=   0.000000  celldm(5)=   0.000000  celldm(6)=   0.000000

     crystal axes: (cart. coord. in units of alat)
               a(1) = (   1.000000   0.000000   0.000000 )  
               a(2) = (  -0.500000   0.866025   0.000000 )  
               a(3) = (   0.000000   0.000000   6.000000 )  

     reciprocal axes: (cart. coord. in units 2 pi/alat)
               b(1) = (  1.000000  0.577350 -0.000000 )  
               b(2) = (  0.000000  1.154701  0.000000 )  
               b(3) = (  0.000000 -0.000000  0.166667 )  


     PseudoPot. # 1 for C  read from file:
     ../../../../Pseudo/LDA/C.upf
     MD5 check sum: 9ef9f0a1c6c947210c7947280cfb54e2
     Pseudo is Norm-conserving + core correction, Zval =  4.0
     Generated using ONCVPSP code by D. R. Hamann
     Using radial grid of 1230 points,  4 beta functions with: 
                l(1) =   0
                l(2) =   0
                l(3) =   1
                l(4) =   1

     atomic species   valence    mass     pseudopotential
        C              4.00    12.01100     C ( 1.00)

     24 Sym. Ops., with inversion, found (12 have fractional translation)


                                    s                        frac. trans.

      isym =  1     identity                                     

 cryst.   s( 1) = (     1          0          0      )
                  (     0          1          0      )
                  (     0          0          1      )

 cart.    s( 1) = (  1.0000000  0.0000000  0.0000000 )
                  (  0.0000000  1.0000000  0.0000000 )
                  (  0.0000000  0.0000000  1.0000000 )


      isym =  2     180 deg rotation - cart. axis [0,0,1]        

 cryst.   s( 2) = (    -1          0          0      )    f =( -0.3333333 )
                  (     0         -1          0      )       (  0.3333333 )
                  (     0          0          1      )       (  0.0000000 )

 cart.    s( 2) = ( -1.0000000  0.0000000  0.0000000 )    f =( -0.5000000 )
                  (  0.0000000 -1.0000000  0.0000000 )       (  0.2886751 )
                  (  0.0000000  0.0000000  1.0000000 )       (  0.0000000 )


      isym =  3     180 deg rotation - cart. axis [0,1,0]        

 cryst.   s( 3) = (    -1          0          0      )
                  (     1          1          0      )
                  (     0          0         -1      )

 cart.    s( 3) = ( -1.0000000  0.0000000  0.0000000 )
                  (  0.0000000  1.0000000  0.0000000 )
                  (  0.0000000  0.0000000 -1.0000000 )


      isym =  4     180 deg rotation - cart. axis [1,0,0]        

 cryst.   s( 4) = (     1          0          0      )    f =( -0.3333333 )
                  (    -1         -1          0      )       (  0.3333333 )
                  (     0          0         -1      )       (  0.0000000 )

 cart.    s( 4) = (  1.0000000  0.0000000  0.0000000 )    f =( -0.5000000 )
                  (  0.0000000 -1.0000000  0.0000000 )       (  0.2886751 )
                  (  0.0000000  0.0000000 -1.0000000 )       (  0.0000000 )


      isym =  5      60 deg rotation - cryst. axis [0,0,1]       

 cryst.   s( 5) = (     1          1          0      )    f =( -0.3333333 )
                  (    -1          0          0      )       (  0.3333333 )
                  (     0          0          1      )       (  0.0000000 )

 cart.    s( 5) = (  0.5000000 -0.8660254  0.0000000 )    f =( -0.5000000 )
                  (  0.8660254  0.5000000  0.0000000 )       (  0.2886751 )
                  (  0.0000000  0.0000000  1.0000000 )       (  0.0000000 )


      isym =  6      60 deg rotation - cryst. axis [0,0,-1]      

 cryst.   s( 6) = (     0         -1          0      )    f =( -0.3333333 )
                  (     1          1          0      )       (  0.3333333 )
                  (     0          0          1      )       (  0.0000000 )

 cart.    s( 6) = (  0.5000000  0.8660254  0.0000000 )    f =( -0.5000000 )
                  ( -0.8660254  0.5000000  0.0000000 )       (  0.2886751 )
                  (  0.0000000  0.0000000  1.0000000 )       (  0.0000000 )


      isym =  7     120 deg rotation - cryst. axis [0,0,1]       

 cryst.   s( 7) = (     0          1          0      )
                  (    -1         -1          0      )
                  (     0          0          1      )

 cart.    s( 7) = ( -0.5000000 -0.8660254  0.0000000 )
                  (  0.8660254 -0.5000000  0.0000000 )
                  (  0.0000000  0.0000000  1.0000000 )


      isym =  8     120 deg rotation - cryst. axis [0,0,-1]      

 cryst.   s( 8) = (    -1         -1          0      )
                  (     1          0          0      )
                  (     0          0          1      )

 cart.    s( 8) = ( -0.5000000  0.8660254  0.0000000 )
                  ( -0.8660254 -0.5000000  0.0000000 )
                  (  0.0000000  0.0000000  1.0000000 )


      isym =  9     180 deg rotation - cryst. axis [1,-1,0]      

 cryst.   s( 9) = (     0         -1          0      )
                  (    -1          0          0      )
                  (     0          0         -1      )

 cart.    s( 9) = (  0.5000000 -0.8660254  0.0000000 )
                  ( -0.8660254 -0.5000000  0.0000000 )
                  (  0.0000000  0.0000000 -1.0000000 )


      isym = 10     180 deg rotation - cryst. axis [2,1,0]       

 cryst.   s(10) = (     1          1          0      )
                  (     0         -1          0      )
                  (     0          0         -1      )

 cart.    s(10) = (  0.5000000  0.8660254  0.0000000 )
                  (  0.8660254 -0.5000000  0.0000000 )
                  (  0.0000000  0.0000000 -1.0000000 )


      isym = 11     180 deg rotation - cryst. axis [0,1,0]       

 cryst.   s(11) = (    -1         -1          0      )    f =( -0.3333333 )
                  (     0          1          0      )       (  0.3333333 )
                  (     0          0         -1      )       (  0.0000000 )

 cart.    s(11) = ( -0.5000000 -0.8660254  0.0000000 )    f =( -0.5000000 )
                  ( -0.8660254  0.5000000  0.0000000 )       (  0.2886751 )
                  (  0.0000000  0.0000000 -1.0000000 )       (  0.0000000 )


      isym = 12     180 deg rotation - cryst. axis [1,1,0]       

 cryst.   s(12) = (     0          1          0      )    f =( -0.3333333 )
                  (     1          0          0      )       (  0.3333333 )
                  (     0          0         -1      )       (  0.0000000 )

 cart.    s(12) = ( -0.5000000  0.8660254  0.0000000 )    f =( -0.5000000 )
                  (  0.8660254  0.5000000  0.0000000 )       (  0.2886751 )
                  (  0.0000000  0.0000000 -1.0000000 )       (  0.0000000 )


      isym = 13     inversion                                    

 cryst.   s(13) = (    -1          0          0      )    f =( -0.3333333 )
                  (     0         -1          0      )       (  0.3333333 )
                  (     0          0         -1      )       (  0.0000000 )

 cart.    s(13) = ( -1.0000000  0.0000000  0.0000000 )    f =( -0.5000000 )
                  (  0.0000000 -1.0000000  0.0000000 )       (  0.2886751 )
                  (  0.0000000  0.0000000 -1.0000000 )       (  0.0000000 )


      isym = 14     inv. 180 deg rotation - cart. axis [0,0,1]   

 cryst.   s(14) = (     1          0          0      )
                  (     0          1          0      )
                  (     0          0         -1      )

 cart.    s(14) = (  1.0000000  0.0000000  0.0000000 )
                  (  0.0000000  1.0000000  0.0000000 )
                  (  0.0000000  0.0000000 -1.0000000 )


      isym = 15     inv. 180 deg rotation - cart. axis [0,1,0]   

 cryst.   s(15) = (     1          0          0      )    f =( -0.3333333 )
                  (    -1         -1          0      )       (  0.3333333 )
                  (     0          0          1      )       (  0.0000000 )

 cart.    s(15) = (  1.0000000  0.0000000  0.0000000 )    f =( -0.5000000 )
                  (  0.0000000 -1.0000000  0.0000000 )       (  0.2886751 )
                  (  0.0000000  0.0000000  1.0000000 )       (  0.0000000 )


      isym = 16     inv. 180 deg rotation - cart. axis [1,0,0]   

 cryst.   s(16) = (    -1          0          0      )
                  (     1          1          0      )
                  (     0          0          1      )

 cart.    s(16) = ( -1.0000000  0.0000000  0.0000000 )
                  (  0.0000000  1.0000000  0.0000000 )
                  (  0.0000000  0.0000000  1.0000000 )


      isym = 17     inv.  60 deg rotation - cryst. axis [0,0,1]  

 cryst.   s(17) = (    -1         -1          0      )
                  (     1          0          0      )
                  (     0          0         -1      )

 cart.    s(17) = ( -0.5000000  0.8660254  0.0000000 )
                  ( -0.8660254 -0.5000000  0.0000000 )
                  (  0.0000000  0.0000000 -1.0000000 )


      isym = 18     inv.  60 deg rotation - cryst. axis [0,0,-1] 

 cryst.   s(18) = (     0          1          0      )
                  (    -1         -1          0      )
                  (     0          0         -1      )

 cart.    s(18) = ( -0.5000000 -0.8660254  0.0000000 )
                  (  0.8660254 -0.5000000  0.0000000 )
                  (  0.0000000  0.0000000 -1.0000000 )


      isym = 19     inv. 120 deg rotation - cryst. axis [0,0,1]  

 cryst.   s(19) = (     0         -1          0      )    f =( -0.3333333 )
                  (     1          1          0      )       (  0.3333333 )
                  (     0          0         -1      )       (  0.0000000 )

 cart.    s(19) = (  0.5000000  0.8660254  0.0000000 )    f =( -0.5000000 )
                  ( -0.8660254  0.5000000  0.0000000 )       (  0.2886751 )
                  (  0.0000000  0.0000000 -1.0000000 )       (  0.0000000 )


      isym = 20     inv. 120 deg rotation - cryst. axis [0,0,-1] 

 cryst.   s(20) = (     1          1          0      )    f =( -0.3333333 )
                  (    -1          0          0      )       (  0.3333333 )
                  (     0          0         -1      )       (  0.0000000 )

 cart.    s(20) = (  0.5000000 -0.8660254  0.0000000 )    f =( -0.5000000 )
                  (  0.8660254  0.5000000  0.0000000 )       (  0.2886751 )
                  (  0.0000000  0.0000000 -1.0000000 )       (  0.0000000 )


      isym = 21     inv. 180 deg rotation - cryst. axis [1,-1,0] 

 cryst.   s(21) = (     0          1          0      )    f =( -0.3333333 )
                  (     1          0          0      )       (  0.3333333 )
                  (     0          0          1      )       (  0.0000000 )

 cart.    s(21) = ( -0.5000000  0.8660254  0.0000000 )    f =( -0.5000000 )
                  (  0.8660254  0.5000000  0.0000000 )       (  0.2886751 )
                  (  0.0000000  0.0000000  1.0000000 )       (  0.0000000 )


      isym = 22     inv. 180 deg rotation - cryst. axis [2,1,0]  

 cryst.   s(22) = (    -1         -1          0      )    f =( -0.3333333 )
                  (     0          1          0      )       (  0.3333333 )
                  (     0          0          1      )       (  0.0000000 )

 cart.    s(22) = ( -0.5000000 -0.8660254  0.0000000 )    f =( -0.5000000 )
                  ( -0.8660254  0.5000000  0.0000000 )       (  0.2886751 )
                  (  0.0000000  0.0000000  1.0000000 )       (  0.0000000 )


      isym = 23     inv. 180 deg rotation - cryst. axis [0,1,0]  

 cryst.   s(23) = (     1          1          0      )
                  (     0         -1          0      )
                  (     0          0          1      )

 cart.    s(23) = (  0.5000000  0.8660254  0.0000000 )
                  (  0.8660254 -0.5000000  0.0000000 )
                  (  0.0000000  0.0000000  1.0000000 )


      isym = 24     inv. 180 deg rotation - cryst. axis [1,1,0]  

 cryst.   s(24) = (     0         -1          0      )
                  (    -1          0          0      )
                  (     0          0          1      )

 cart.    s(24) = (  0.5000000 -0.8660254  0.0000000 )
                  ( -0.8660254 -0.5000000  0.0000000 )
                  (  0.0000000  0.0000000  1.0000000 )


     point group D_6h(6/mmm)
     there are 12 classes
     the character table:

       E     2C6   2C3   C2    3C2'  3C2'' i     2S3   2S6   s_h   3s_d  3s_v 
A_1g   1.00  1.00  1.00  1.00  1.00  1.00  1.00  1.00  1.00  1.00  1.00  1.00
A_2g   1.00  1.00  1.00  1.00 -1.00 -1.00  1.00  1.00  1.00  1.00 -1.00 -1.00
B_1g   1.00 -1.00  1.00 -1.00  1.00 -1.00  1.00 -1.00  1.00 -1.00  1.00 -1.00
B_2g   1.00 -1.00  1.00 -1.00 -1.00  1.00  1.00 -1.00  1.00 -1.00 -1.00  1.00
E_1g   2.00  1.00 -1.00 -2.00  0.00  0.00  2.00  1.00 -1.00 -2.00  0.00  0.00
E_2g   2.00 -1.00 -1.00  2.00  0.00  0.00  2.00 -1.00 -1.00  2.00  0.00  0.00
A_1u   1.00  1.00  1.00  1.00  1.00  1.00 -1.00 -1.00 -1.00 -1.00 -1.00 -1.00
A_2u   1.00  1.00  1.00  1.00 -1.00 -1.00 -1.00 -1.00 -1.00 -1.00  1.00  1.00
B_1u   1.00 -1.00  1.00 -1.00  1.00 -1.00 -1.00  1.00 -1.00  1.00 -1.00  1.00
B_2u   1.00 -1.00  1.00 -1.00 -1.00  1.00 -1.00  1.00 -1.00  1.00  1.00 -1.00
E_1u   2.00  1.00 -1.00 -2.00  0.00  0.00 -2.00 -1.00  1.00  2.00  0.00  0.00
E_2u   2.00 -1.00 -1.00  2.00  0.00  0.00 -2.00  1.00  1.00 -2.00  0.00  0.00

     the symmetry operations in each class and the name of the first element:

     E        1
          identity                                               
     2C6      5    6
           60 deg rotation - cryst. axis [0,0,1]                 
     2C3      7    8
          120 deg rotation - cryst. axis [0,0,1]                 
     C2       2
          180 deg rotation - cart. axis [0,0,1]                  
     3C2'     4   12   11
          180 deg rotation - cart. axis [1,0,0]                  
     3C2''    3    9   10
          180 deg rotation - cart. axis [0,1,0]                  
     i       13
          inversion                                              
     2S3     17   18
          inv.  60 deg rotation - cryst. axis [0,0,1]            
     2S6     19   20
          inv. 120 deg rotation - cryst. axis [0,0,1]            
     s_h     14
          inv. 180 deg rotation - cart. axis [0,0,1]             
     3s_d    16   24   23
          inv. 180 deg rotation - cart. axis [1,0,0]             
     3s_v    15   21   22
          inv. 180 deg rotation - cart. axis [0,1,0]             

   Cartesian axes

     site n.     atom                  positions (alat units)
         1           C   tau(   1) = (   0.0000000   0.0000000   0.0000000  )
         2           C   tau(   2) = (  -0.0000000   0.5773503   0.0000000  )

   Crystallographic axes

     site n.     atom                  positions (cryst. coord.)
         1           C   tau(   1) = (  0.0000000  0.0000000  0.0000000  )
         2           C   tau(   2) = (  0.3333333  0.6666667  0.0000000  )

     number of k points=    61  Marzari-Vanderbilt smearing, width (Ry)=  0.0100
                       cart. coord. in units 2pi/alat
        k(    1) = (   0.0000000   0.0000000   0.0000000), wk =   0.0034722
        k(    2) = (   0.0000000   0.0481125   0.0000000), wk =   0.0208333
        k(    3) = (   0.0000000   0.0962250   0.0000000), wk =   0.0208333
        k(    4) = (   0.0000000   0.1443376   0.0000000), wk =   0.0208333
        k(    5) = (   0.0000000   0.1924501   0.0000000), wk =   0.0208333
        k(    6) = (   0.0000000   0.2405626   0.0000000), wk =   0.0208333
        k(    7) = (   0.0000000   0.2886751   0.0000000), wk =   0.0208333
        k(    8) = (   0.0000000   0.3367877   0.0000000), wk =   0.0208333
        k(    9) = (   0.0000000   0.3849002   0.0000000), wk =   0.0208333
        k(   10) = (   0.0000000   0.4330127   0.0000000), wk =   0.0208333
        k(   11) = (   0.0000000   0.4811252   0.0000000), wk =   0.0208333
        k(   12) = (   0.0000000   0.5292377   0.0000000), wk =   0.0208333
        k(   13) = (   0.0000000  -0.5773503   0.0000000), wk =   0.0104167
        k(   14) = (   0.0416667   0.0721688   0.0000000), wk =   0.0208333
        k(   15) = (   0.0416667   0.1202813   0.0000000), wk =   0.0416667
        k(   16) = (   0.0416667   0.1683938   0.0000000), wk =   0.0416667
        k(   17) = (   0.0416667   0.2165064   0.0000000), wk =   0.0416667
        k(   18) = (   0.0416667   0.2646189   0.0000000), wk =   0.0416667
        k(   19) = (   0.0416667   0.3127314   0.0000000), wk =   0.0416667
        k(   20) = (   0.0416667   0.3608439   0.0000000), wk =   0.0416667
        k(   21) = (   0.0416667   0.4089564   0.0000000), wk =   0.0416667
        k(   22) = (   0.0416667   0.4570690   0.0000000), wk =   0.0416667
        k(   23) = (   0.0416667   0.5051815   0.0000000), wk =   0.0416667
        k(   24) = (   0.0416667   0.5532940   0.0000000), wk =   0.0416667
        k(   25) = (   0.0833333   0.1443376   0.0000000), wk =   0.0208333
        k(   26) = (   0.0833333   0.1924501   0.0000000), wk =   0.0416667
        k(   27) = (   0.0833333   0.2405626   0.0000000), wk =   0.0416667
        k(   28) = (   0.0833333   0.2886751   0.0000000), wk =   0.0416667
        k(   29) = (   0.0833333   0.3367877   0.0000000), wk =   0.0416667
        k(   30) = (   0.0833333   0.3849002   0.0000000), wk =   0.0416667
        k(   31) = (   0.0833333   0.4330127   0.0000000), wk =   0.0416667
        k(   32) = (   0.0833333   0.4811252   0.0000000), wk =   0.0416667
        k(   33) = (   0.0833333   0.5292377   0.0000000), wk =   0.0416667
        k(   34) = (   0.0833333   0.5773503   0.0000000), wk =   0.0208333
        k(   35) = (   0.1250000   0.2165064   0.0000000), wk =   0.0208333
        k(   36) = (   0.1250000   0.2646189   0.0000000), wk =   0.0416667
        k(   37) = (   0.1250000   0.3127314   0.0000000), wk =   0.0416667
        k(   38) = (   0.1250000   0.3608439   0.0000000), wk =   0.0416667
        k(   39) = (   0.1250000   0.4089564   0.0000000), wk =   0.0416667
        k(   40) = (   0.1250000   0.4570690   0.0000000), wk =   0.0416667
        k(   41) = (   0.1250000   0.5051815   0.0000000), wk =   0.0416667
        k(   42) = (   0.1250000   0.5532940   0.0000000), wk =   0.0416667
        k(   43) = (   0.1666667   0.2886751   0.0000000), wk =   0.0208333
        k(   44) = (   0.1666667   0.3367877   0.0000000), wk =   0.0416667
        k(   45) = (   0.1666667   0.3849002   0.0000000), wk =   0.0416667
        k(   46) = (   0.1666667   0.4330127   0.0000000), wk =   0.0416667
        k(   47) = (   0.1666667   0.4811252   0.0000000), wk =   0.0416667
        k(   48) = (   0.1666667   0.5292377   0.0000000), wk =   0.0416667
        k(   49) = (   0.1666667   0.5773503   0.0000000), wk =   0.0208333
        k(   50) = (   0.2083333   0.3608439   0.0000000), wk =   0.0208333
        k(   51) = (   0.2083333   0.4089564   0.0000000), wk =   0.0416667
        k(   52) = (   0.2083333   0.4570690   0.0000000), wk =   0.0416667
        k(   53) = (   0.2083333   0.5051815   0.0000000), wk =   0.0416667
        k(   54) = (   0.2083333   0.5532940   0.0000000), wk =   0.0416667
        k(   55) = (   0.2500000   0.4330127   0.0000000), wk =   0.0208333
        k(   56) = (   0.2500000   0.4811252   0.0000000), wk =   0.0416667
        k(   57) = (   0.2500000   0.5292377   0.0000000), wk =   0.0416667
        k(   58) = (   0.2500000   0.5773503   0.0000000), wk =   0.0208333
        k(   59) = (   0.2916667   0.5051815   0.0000000), wk =   0.0208333
        k(   60) = (   0.2916667   0.5532940   0.0000000), wk =   0.0416667
        k(   61) = (   0.3333333   0.5773503   0.0000000), wk =   0.0069444

                       cryst. coord.
        k(    1) = (   0.0000000   0.0000000   0.0000000), wk =   0.0034722
        k(    2) = (   0.0000000   0.0416667   0.0000000), wk =   0.0208333
        k(    3) = (   0.0000000   0.0833333   0.0000000), wk =   0.0208333
        k(    4) = (   0.0000000   0.1250000   0.0000000), wk =   0.0208333
        k(    5) = (   0.0000000   0.1666667   0.0000000), wk =   0.0208333
        k(    6) = (   0.0000000   0.2083333   0.0000000), wk =   0.0208333
        k(    7) = (   0.0000000   0.2500000   0.0000000), wk =   0.0208333
        k(    8) = (   0.0000000   0.2916667   0.0000000), wk =   0.0208333
        k(    9) = (   0.0000000   0.3333333   0.0000000), wk =   0.0208333
        k(   10) = (   0.0000000   0.3750000   0.0000000), wk =   0.0208333
        k(   11) = (   0.0000000   0.4166667   0.0000000), wk =   0.0208333
        k(   12) = (   0.0000000   0.4583333   0.0000000), wk =   0.0208333
        k(   13) = (   0.0000000  -0.5000000   0.0000000), wk =   0.0104167
        k(   14) = (   0.0416667   0.0416667   0.0000000), wk =   0.0208333
        k(   15) = (   0.0416667   0.0833333   0.0000000), wk =   0.0416667
        k(   16) = (   0.0416667   0.1250000   0.0000000), wk =   0.0416667
        k(   17) = (   0.0416667   0.1666667   0.0000000), wk =   0.0416667
        k(   18) = (   0.0416667   0.2083333   0.0000000), wk =   0.0416667
        k(   19) = (   0.0416667   0.2500000   0.0000000), wk =   0.0416667
        k(   20) = (   0.0416667   0.2916667   0.0000000), wk =   0.0416667
        k(   21) = (   0.0416667   0.3333333   0.0000000), wk =   0.0416667
        k(   22) = (   0.0416667   0.3750000   0.0000000), wk =   0.0416667
        k(   23) = (   0.0416667   0.4166667   0.0000000), wk =   0.0416667
        k(   24) = (   0.0416667   0.4583333   0.0000000), wk =   0.0416667
        k(   25) = (   0.0833333   0.0833333   0.0000000), wk =   0.0208333
        k(   26) = (   0.0833333   0.1250000   0.0000000), wk =   0.0416667
        k(   27) = (   0.0833333   0.1666667   0.0000000), wk =   0.0416667
        k(   28) = (   0.0833333   0.2083333   0.0000000), wk =   0.0416667
        k(   29) = (   0.0833333   0.2500000   0.0000000), wk =   0.0416667
        k(   30) = (   0.0833333   0.2916667   0.0000000), wk =   0.0416667
        k(   31) = (   0.0833333   0.3333333   0.0000000), wk =   0.0416667
        k(   32) = (   0.0833333   0.3750000   0.0000000), wk =   0.0416667
        k(   33) = (   0.0833333   0.4166667   0.0000000), wk =   0.0416667
        k(   34) = (   0.0833333   0.4583333   0.0000000), wk =   0.0208333
        k(   35) = (   0.1250000   0.1250000   0.0000000), wk =   0.0208333
        k(   36) = (   0.1250000   0.1666667   0.0000000), wk =   0.0416667
        k(   37) = (   0.1250000   0.2083333   0.0000000), wk =   0.0416667
        k(   38) = (   0.1250000   0.2500000   0.0000000), wk =   0.0416667
        k(   39) = (   0.1250000   0.2916667   0.0000000), wk =   0.0416667
        k(   40) = (   0.1250000   0.3333333   0.0000000), wk =   0.0416667
        k(   41) = (   0.1250000   0.3750000   0.0000000), wk =   0.0416667
        k(   42) = (   0.1250000   0.4166667   0.0000000), wk =   0.0416667
        k(   43) = (   0.1666667   0.1666667   0.0000000), wk =   0.0208333
        k(   44) = (   0.1666667   0.2083333   0.0000000), wk =   0.0416667
        k(   45) = (   0.1666667   0.2500000   0.0000000), wk =   0.0416667
        k(   46) = (   0.1666667   0.2916667   0.0000000), wk =   0.0416667
        k(   47) = (   0.1666667   0.3333333   0.0000000), wk =   0.0416667
        k(   48) = (   0.1666667   0.3750000   0.0000000), wk =   0.0416667
        k(   49) = (   0.1666667   0.4166667   0.0000000), wk =   0.0208333
        k(   50) = (   0.2083333   0.2083333   0.0000000), wk =   0.0208333
        k(   51) = (   0.2083333   0.2500000   0.0000000), wk =   0.0416667
        k(   52) = (   0.2083333   0.2916667   0.0000000), wk =   0.0416667
        k(   53) = (   0.2083333   0.3333333   0.0000000), wk =   0.0416667
        k(   54) = (   0.2083333   0.3750000   0.0000000), wk =   0.0416667
        k(   55) = (   0.2500000   0.2500000   0.0000000), wk =   0.0208333
        k(   56) = (   0.2500000   0.2916667   0.0000000), wk =   0.0416667
        k(   57) = (   0.2500000   0.3333333   0.0000000), wk =   0.0416667
        k(   58) = (   0.2500000   0.3750000   0.0000000), wk =   0.0208333
        k(   59) = (   0.2916667   0.2916667   0.0000000), wk =   0.0208333
        k(   60) = (   0.2916667   0.3333333   0.0000000), wk =   0.0416667
        k(   61) = (   0.3333333   0.3333333   0.0000000), wk =   0.0069444

     Dense  grid:    32597 G-vectors     FFT dimensions: (  24,  24, 144)

     Dynamical RAM for                 wfc:       0.50 MB

     Dynamical RAM for     wfc (w. buffer):      30.74 MB

     Dynamical RAM for           str. fact:       0.50 MB

     Dynamical RAM for           local pot:       0.00 MB

     Dynamical RAM for          nlocal pot:       0.99 MB

     Dynamical RAM for                qrad:       0.36 MB

     Dynamical RAM for          rho,v,vnew:       3.39 MB

     Dynamical RAM for               rhoin:       1.13 MB

     Dynamical RAM for            rho*nmix:       7.96 MB

     Dynamical RAM for           G-vectors:       2.11 MB

     Dynamical RAM for          h,s,v(r/c):       0.01 MB

     Dynamical RAM for          <psi|beta>:       0.00 MB

     Dynamical RAM for                 psi:       0.99 MB

     Dynamical RAM for                hpsi:       0.99 MB

     Dynamical RAM for      wfcinit/wfcrot:       0.99 MB

     Estimated static dynamical RAM per process >      51.33 MB

     Estimated max dynamical RAM per process >      53.33 MB

     Initial potential from superposition of free atoms

     starting charge    7.99992, renormalised to    8.00000

     negative rho (up, down):  2.379E-05 0.000E+00
     Starting wfcs are    8 randomized atomic wfcs

     total cpu time spent up to now is        1.5 secs

     Self-consistent Calculation

     iteration #  1     ecut=    60.00 Ry     beta= 0.70
     Davidson diagonalization with overlap
     ethr =  1.00E-02,  avg # of iterations =  6.1

     negative rho (up, down):  4.241E-07 0.000E+00

     total cpu time spent up to now is        9.4 secs

     total energy              =     -24.08177101 Ry
     estimated scf accuracy    <       0.21128382 Ry

     iteration #  2     ecut=    60.00 Ry     beta= 0.70
     Davidson diagonalization with overlap
     ethr =  2.64E-03,  avg # of iterations =  3.9

     negative rho (up, down):  2.008E-08 0.000E+00

     total cpu time spent up to now is       14.3 secs

     total energy              =     -24.11525932 Ry
     estimated scf accuracy    <       0.00217558 Ry

     iteration #  3     ecut=    60.00 Ry     beta= 0.70
     Davidson diagonalization with overlap
     c_bands:  1 eigenvalues not converged
     ethr =  2.72E-05,  avg # of iterations = 10.3

     total cpu time spent up to now is       24.0 secs

     total energy              =     -24.11568827 Ry
     estimated scf accuracy    <       0.00013797 Ry

     iteration #  4     ecut=    60.00 Ry     beta= 0.70
     Davidson diagonalization with overlap
     ethr =  1.72E-06,  avg # of iterations =  5.5

     total cpu time spent up to now is       29.7 secs

     total energy              =     -24.11570136 Ry
     estimated scf accuracy    <       0.00000310 Ry

     iteration #  5     ecut=    60.00 Ry     beta= 0.70
     Davidson diagonalization with overlap
     ethr =  3.87E-08,  avg # of iterations =  2.9

     total cpu time spent up to now is       35.3 secs

     End of self-consistent calculation

          k = 0.0000 0.0000 0.0000 (  4053 PWs)   bands (ev):

   -21.3548  -9.6639  -4.9075  -4.9075   1.4502   2.5071   3.0003   4.9282

     occupation numbers 
     1.0000   1.0000   1.0000   1.0000   0.0000   0.0000   0.0000   0.0000

          k = 0.0000 0.0481 0.0000 (  4063 PWs)   bands (ev):

   -21.3137  -9.6142  -5.0738  -4.9987   1.5061   2.5637   3.0576   4.9843

     occupation numbers 
     1.0000   1.0000   1.0000   1.0000   0.0000   0.0000   0.0000   0.0000

          k = 0.0000 0.0962 0.0000 (  4064 PWs)   bands (ev):

   -21.1903  -9.4641  -5.5519  -5.2543   1.6738   2.7335   3.2296   5.1529

     occupation numbers 
     1.0000   1.0000   1.0000   1.0000   0.0000   0.0000   0.0000   0.0000

          k = 0.0000 0.1443 0.0000 (  4068 PWs)   bands (ev):

   -20.9852  -9.2159  -6.2770  -5.6279   1.9535   3.0159   3.5162   5.4330

     occupation numbers 
     1.0000   1.0000   1.0000   1.0000   0.0000   0.0000   0.0000   0.0000

          k = 0.0000 0.1925 0.0000 (  4070 PWs)   bands (ev):

   -20.6986  -8.8709  -7.1801  -6.0656   2.3450   3.4103   3.9176   5.8228

     occupation numbers 
     1.0000   1.0000   1.0000   1.0000   0.0000   0.0000   0.0000   0.0000

          k = 0.0000 0.2406 0.0000 (  4074 PWs)   bands (ev):

   -20.3315  -8.4319  -8.1952  -6.5233   2.8478   3.9140   4.4333   6.2805

     occupation numbers 
     1.0000   1.0000   1.0000   1.0000   0.0000   0.0000   0.0000   0.0000

          k = 0.0000 0.2887 0.0000 (  4058 PWs)   bands (ev):

   -19.8849  -9.2738  -7.9028  -6.9647   3.4613   4.5076   5.0631   5.4472

     occupation numbers 
     1.0000   1.0000   1.0000   1.0000   0.0000   0.0000   0.0000   0.0000

          k = 0.0000 0.3368 0.0000 (  4066 PWs)   bands (ev):

   -19.3607 -10.3781  -7.3670  -7.2920   4.1838   4.2082   5.3152   5.7998

     occupation numbers 
     1.0000   1.0000   1.0000   1.0000   0.0000   0.0000   0.0000   0.0000

          k = 0.0000 0.3849 0.0000 (  4084 PWs)   bands (ev):

   -18.7609 -11.4801  -7.7138  -6.6113   3.0507   5.0105   6.0866   6.1325

     occupation numbers 
     1.0000   1.0000   1.0000   1.0000   0.0000   0.0000   0.0000   0.0000

          k = 0.0000 0.4330 0.0000 (  4080 PWs)   bands (ev):

   -18.0886 -12.5581  -7.9926  -5.8836   1.9118   5.8327   6.0896   7.0733

     occupation numbers 
     1.0000   1.0000   1.0000   1.0000   0.0000   0.0000   0.0000   0.0000

          k = 0.0000 0.4811 0.0000 (  4070 PWs)   bands (ev):

   -17.3513 -13.5932  -8.1962  -5.1568   0.8773   5.8471   7.0279   8.1174

     occupation numbers 
     1.0000   1.0000   1.0000   1.0000   0.0000   0.0000   0.0000   0.0000

          k = 0.0000 0.5292 0.0000 (  4066 PWs)   bands (ev):

   -16.5721 -14.5538  -8.3206  -4.5477   0.0775   5.7952   8.1663   9.2498

     occupation numbers 
     1.0000   1.0000   1.0000   1.0000   0.0000   0.0000   0.0000   0.0000

          k = 0.0000-0.5774 0.0000 (  4104 PWs)   bands (ev):

   -16.0107 -15.1773  -8.3627  -4.2887  -0.2478   5.7762   9.3585   9.4430

     occupation numbers 
     1.0000   1.0000   1.0000   1.0000   0.0000   0.0000   0.0000   0.0000

          k = 0.0417 0.0722 0.0000 (  4059 PWs)   bands (ev):

   -21.2314  -9.5139  -5.3873  -5.1815   1.6179   2.6769   3.1723   5.0969

     occupation numbers 
     1.0000   1.0000   1.0000   1.0000   0.0000   0.0000   0.0000   0.0000

          k = 0.0417 0.1203 0.0000 (  4063 PWs)   bands (ev):

   -21.0672  -9.3150  -5.9674  -5.5172   1.8418   2.9030   3.4016   5.3213

     occupation numbers 
     1.0000   1.0000   1.0000   1.0000   0.0000   0.0000   0.0000   0.0000

          k = 0.0417 0.1684 0.0000 (  4073 PWs)   bands (ev):

   -20.8214  -9.0186  -6.7601  -5.9446   2.1774   3.2415   3.7457   5.6564

     occupation numbers 
     1.0000   1.0000   1.0000   1.0000   0.0000   0.0000   0.0000   0.0000

          k = 0.0417 0.2165 0.0000 (  4064 PWs)   bands (ev):

   -20.4945  -8.6260  -7.7021  -6.4093   2.6246   3.6911   4.2043   6.0981

     occupation numbers 
     1.0000   1.0000   1.0000   1.0000   0.0000   0.0000   0.0000   0.0000

          k = 0.0417 0.2646 0.0000 (  4064 PWs)   bands (ev):

   -20.0877  -8.7375  -8.1416  -6.8712   3.1830   4.2462   4.7773   5.9278

     occupation numbers 
     1.0000   1.0000   1.0000   1.0000   0.0000   0.0000   0.0000   0.0000

          k = 0.0417 0.3127 0.0000 (  4063 PWs)   bands (ev):

   -19.6022  -9.8212  -7.5711  -7.3013   3.8515   4.6697   5.0603   5.4633

     occupation numbers 
     1.0000   1.0000   1.0000   1.0000   0.0000   0.0000   0.0000   0.0000

          k = 0.0417 0.3608 0.0000 (  4064 PWs)   bands (ev):

   -19.0402 -10.9189  -7.6804  -6.9236   3.6077   4.6278   5.7412   6.2247

     occupation numbers 
     1.0000   1.0000   1.0000   1.0000   0.0000   0.0000   0.0000   0.0000

          k = 0.0417 0.4090 0.0000 (  4067 PWs)   bands (ev):

   -18.4040 -12.0057  -7.9964  -6.2153   2.4564   5.5025   6.2158   6.6254

     occupation numbers 
     1.0000   1.0000   1.0000   1.0000   0.0000   0.0000   0.0000   0.0000

          k = 0.0417 0.4571 0.0000 (  4066 PWs)   bands (ev):

   -17.6987 -13.0608  -8.2395  -5.4794   1.3641   6.0538   6.5522   7.6172

     occupation numbers 
     1.0000   1.0000   1.0000   1.0000   0.0000   0.0000   0.0000   0.0000

          k = 0.0417 0.5052 0.0000 (  4075 PWs)   bands (ev):

   -16.9356 -14.0624  -8.4047  -4.7902   0.4279   6.0005   7.6242   8.7019

     occupation numbers 
     1.0000   1.0000   1.0000   1.0000   0.0000   0.0000   0.0000   0.0000

          k = 0.0417 0.5533 0.0000 (  4083 PWs)   bands (ev):

   -16.1801 -14.9391  -8.4878  -4.3197  -0.1696   5.9641   8.8100  10.0825

     occupation numbers 
     1.0000   1.0000   1.0000   1.0000   0.0000   0.0000   0.0000   0.0000

          k = 0.0833 0.1443 0.0000 (  4065 PWs)   bands (ev):

   -20.8623  -9.0673  -6.5749  -5.9477   2.1216   3.1853   3.6884   5.6014

     occupation numbers 
     1.0000   1.0000   1.0000   1.0000   0.0000   0.0000   0.0000   0.0000

          k = 0.0833 0.1925 0.0000 (  4061 PWs)   bands (ev):

   -20.5761  -8.7236  -7.3550  -6.4539   2.5132   3.5794   4.0899   5.9911

     occupation numbers 
     1.0000   1.0000   1.0000   1.0000   0.0000   0.0000   0.0000   0.0000

          k = 0.0833 0.2406 0.0000 (  4067 PWs)   bands (ev):

   -20.2096  -8.2860  -8.2762  -6.9642   3.0163   4.0833   4.6060   6.2592

     occupation numbers 
     1.0000   1.0000   1.0000   1.0000   0.0000   0.0000   0.0000   0.0000

          k = 0.0833 0.2887 0.0000 (  4067 PWs)   bands (ev):

   -19.7640  -9.2895  -7.7589  -7.4408   3.6301   4.6745   5.2364   5.2476

     occupation numbers 
     1.0000   1.0000   1.0000   1.0000   0.0000   0.0000   0.0000   0.0000

          k = 0.0833 0.3368 0.0000 (  4065 PWs)   bands (ev):

   -19.2408 -10.3502  -7.8641  -7.1494   4.0835   4.3534   5.4526   5.9797

     occupation numbers 
     1.0000   1.0000   1.0000   1.0000   0.0000   0.0000   0.0000   0.0000

          k = 0.0833 0.3849 0.0000 (  4053 PWs)   bands (ev):

   -18.6421 -11.4226  -8.2225  -6.4697   2.9566   5.1837   6.2785   6.7435

     occupation numbers 
     1.0000   1.0000   1.0000   1.0000   0.0000   0.0000   0.0000   0.0000

          k = 0.0833 0.4330 0.0000 (  4072 PWs)   bands (ev):

   -17.9724 -12.4813  -8.5084  -5.7426   1.8490   6.1081   6.6842   7.2123

     occupation numbers 
     1.0000   1.0000   1.0000   1.0000   0.0000   0.0000   0.0000   0.0000

          k = 0.0833 0.4811 0.0000 (  4061 PWs)   bands (ev):

   -17.2377 -13.5025  -8.7156  -5.0147   0.8358   6.5482   7.1965   8.2391

     occupation numbers 
     1.0000   1.0000   1.0000   1.0000   0.0000   0.0000   0.0000   0.0000

          k = 0.0833 0.5292 0.0000 (  4077 PWs)   bands (ev):

   -16.4629 -14.4533  -8.8415  -4.4012   0.0438   6.5025   8.3232   9.3298

     occupation numbers 
     1.0000   1.0000   1.0000   1.0000   0.0000   0.0000   0.0000   0.0000

          k = 0.0833 0.5774 0.0000 (  4076 PWs)   bands (ev):

   -15.9069 -15.0685  -8.8837  -4.1363  -0.2812   6.4843   9.4997   9.5944

     occupation numbers 
     1.0000   1.0000   1.0000   1.0000   0.0000   0.0000   0.0000   0.0000

          k = 0.1250 0.2165 0.0000 (  4063 PWs)   bands (ev):

   -20.2503  -8.3341  -8.0600  -7.0608   2.9608   4.0285   4.5489   6.3982

     occupation numbers 
     1.0000   1.0000   1.0000   1.0000   0.0000   0.0000   0.0000   0.0000

          k = 0.1250 0.2646 0.0000 (  4072 PWs)   bands (ev):

   -19.8450  -8.8931  -7.8533  -7.6522   3.5194   4.5853   5.1225   5.4571

     occupation numbers 
     1.0000   1.0000   1.0000   1.0000   0.0000   0.0000   0.0000   0.0000

          k = 0.1250 0.3127 0.0000 (  4072 PWs)   bands (ev):

   -19.3616  -9.8383  -8.1672  -7.2862   4.1881   4.4218   5.2665   5.8104

     occupation numbers 
     1.0000   1.0000   1.0000   1.0000   0.0000   0.0000   0.0000   0.0000

          k = 0.1250 0.3608 0.0000 (  4057 PWs)   bands (ev):

   -18.8018 -10.8482  -8.5948  -6.6420   3.3557   4.9656   6.0373   6.6111

     occupation numbers 
     1.0000   1.0000   1.0000   1.0000   0.0000   0.0000   0.0000   0.0000

          k = 0.1250 0.4090 0.0000 (  4051 PWs)   bands (ev):

   -18.1692 -11.8788  -8.9369  -5.9365   2.2788   5.8489   6.9112   7.4656

     occupation numbers 
     1.0000   1.0000   1.0000   1.0000   0.0000   0.0000   0.0000   0.0000

          k = 0.1250 0.4571 0.0000 (  4058 PWs)   bands (ev):

   -17.4687 -12.8971  -9.1945  -5.2003   1.2439   6.8274   7.4312   7.8719

     occupation numbers 
     1.0000   1.0000   1.0000   1.0000   0.0000   0.0000   0.0000   0.0000

          k = 0.1250 0.5052 0.0000 (  4064 PWs)   bands (ev):

   -16.7125 -13.8734  -9.3670  -4.5037   0.3385   7.3221   7.9496   8.8852

     occupation numbers 
     1.0000   1.0000   1.0000   1.0000   0.0000   0.0000   0.0000   0.0000

          k = 0.1250 0.5533 0.0000 (  4068 PWs)   bands (ev):

   -15.9677 -14.7306  -9.4534  -4.0191  -0.2539   7.2923   9.1126   9.8082

     occupation numbers 
     1.0000   1.0000   1.0000   1.0000   0.0000   0.0000   0.0000   0.0000

          k = 0.1667 0.2887 0.0000 (  4066 PWs)   bands (ev):

   -19.4019  -9.5857  -8.3543  -7.3320   4.1330   4.5511   5.1968   5.7534

     occupation numbers 
     1.0000   1.0000   1.0000   1.0000   0.0000   0.0000   0.0000   0.0000

          k = 0.1667 0.3368 0.0000 (  4066 PWs)   bands (ev):

   -18.8821 -10.3987  -8.9558  -6.7291   3.5847   4.8558   5.9107   6.4985

     occupation numbers 
     1.0000   1.0000   1.0000   1.0000   0.0000   0.0000   0.0000   0.0000

          k = 0.1667 0.3849 0.0000 (  4070 PWs)   bands (ev):

   -18.2882 -11.3174  -9.4173  -6.0552   2.5825   5.6858   6.7214   7.3576

     occupation numbers 
     1.0000   1.0000   1.0000   1.0000   0.0000   0.0000   0.0000   0.0000

          k = 0.1667 0.4330 0.0000 (  4049 PWs)   bands (ev):

   -17.6242 -12.2839  -9.7552  -5.3309   1.5825   6.6195   7.6108   8.3114

     occupation numbers 
     1.0000   1.0000   1.0000   1.0000   0.0000   0.0000   0.0000   0.0000

          k = 0.1667 0.4811 0.0000 (  4053 PWs)   bands (ev):

   -16.8986 -13.2490  -9.9893  -4.5989   0.6408   7.6476   8.3840   8.5316

     occupation numbers 
     1.0000   1.0000   1.0000   1.0000   0.0000   0.0000   0.0000   0.0000

          k = 0.1667 0.5292 0.0000 (  4070 PWs)   bands (ev):

   -16.1365 -14.1627 -10.1277  -3.9652  -0.1249   8.2989   8.7960   9.3332

     occupation numbers 
     1.0000   1.0000   1.0000   1.0000   0.0000   0.0000   0.0000   0.0000

          k = 0.1667 0.5774 0.0000 (  4052 PWs)   bands (ev):

   -15.5956 -14.7548 -10.1733  -3.6819  -0.4521   8.2880   9.6708   9.9079

     occupation numbers 
     1.0000   1.0000   1.0000   1.0000   0.0000   0.0000   0.0000   0.0000

          k = 0.2083 0.3608 0.0000 (  4056 PWs)   bands (ev):

   -18.3278 -11.0260  -9.6850  -6.0951   2.6952   5.6310   6.6560   7.3007

     occupation numbers 
     1.0000   1.0000   1.0000   1.0000   0.0000   0.0000   0.0000   0.0000

          k = 0.2083 0.4090 0.0000 (  4050 PWs)   bands (ev):

   -17.7025 -11.7831 -10.2403  -5.3982   1.7790   6.5109   7.4723   8.2155

     occupation numbers 
     1.0000   1.0000   1.0000   1.0000   0.0000   0.0000   0.0000   0.0000

          k = 0.2083 0.4571 0.0000 (  4046 PWs)   bands (ev):

   -17.0122 -12.6459 -10.6073  -4.6637   0.8696   7.4896   8.2945   9.2366

     occupation numbers 
     1.0000   1.0000   1.0000   1.0000   0.0000   0.0000   0.0000   0.0000

          k = 0.2083 0.5052 0.0000 (  4041 PWs)   bands (ev):

   -16.2705 -13.5366 -10.8286  -3.9504   0.0342   8.5545   8.9431   9.4531

     occupation numbers 
     1.0000   1.0000   1.0000   1.0000   0.0000   0.0000   0.0000   0.0000

          k = 0.2083 0.5533 0.0000 (  4052 PWs)   bands (ev):

   -15.5458 -14.3443 -10.9344  -3.4264  -0.5535   9.2229   9.3827   9.7110

     occupation numbers 
     1.0000   1.0000   1.0000   1.0000   0.0000   0.0000   0.0000   0.0000

          k = 0.2500 0.4330 0.0000 (  4056 PWs)   bands (ev):

   -17.0506 -12.3184 -10.9425  -4.6871   0.9556   7.4353   8.2090   9.1856

     occupation numbers 
     1.0000   1.0000   1.0000   1.0000   0.0000   0.0000   0.0000   0.0000

          k = 0.2500 0.4811 0.0000 (  4035 PWs)   bands (ev):

   -16.3410 -12.9997 -11.4073  -3.9506   0.1405   8.4487   8.7189  10.2586

     occupation numbers 
     1.0000   1.0000   1.0000   1.0000   0.0000   0.0000   0.0000   0.0000

          k = 0.2500 0.5292 0.0000 (  4038 PWs)   bands (ev):

   -15.6014 -13.7708 -11.6453  -3.2723  -0.5859   8.8651   9.5232  10.5006

     occupation numbers 
     1.0000   1.0000   1.0000   1.0000   0.0000   0.0000   0.0000   0.0000

          k = 0.2500 0.5774 0.0000 (  4052 PWs)   bands (ev):

   -15.0782 -14.3131 -11.7177  -2.9323  -0.9423   8.8719  10.4170  10.5160

     occupation numbers 
     1.0000   1.0000   1.0000   1.0000   0.0000   0.0000   0.0000   0.0000

          k = 0.2917 0.5052 0.0000 (  4042 PWs)   bands (ev):

   -15.6270 -13.4338 -12.0233  -3.2221  -0.5903   8.7330   9.4710  11.2876

     occupation numbers 
     1.0000   1.0000   1.0000   1.0000   0.0000   0.0000   0.0000   0.0000

          k = 0.2917 0.5533 0.0000 (  4046 PWs)   bands (ev):

   -14.9306 -13.9983 -12.3274  -2.5816  -1.2286   8.6403  10.4766  11.1571

     occupation numbers 
     1.0000   1.0000   1.0000   1.0000   0.0000   0.0000   0.0000   0.0000

          k = 0.3333 0.5774 0.0000 (  4056 PWs)   bands (ev):

   -14.3561 -14.3561 -12.6252  -1.8958  -1.8958   8.5439  11.1071  11.1072

     occupation numbers 
     1.0000   1.0000   1.0000   0.5000   0.5000   0.0000   0.0000   0.0000

     the Fermi energy is    -1.8768 ev

!    total energy              =     -24.11570283 Ry
     estimated scf accuracy    <       0.00000008 Ry
     smearing contrib. (-TS)   =      -0.00002279 Ry
     internal energy E=F+TS    =     -24.11568004 Ry

     The total energy is F=E-TS. E is the sum of the following terms:
     one-electron contribution =    -154.91571258 Ry
     hartree contribution      =      78.91402276 Ry
     xc contribution           =      -8.55672629 Ry
     ewald contribution        =      60.44273608 Ry

     convergence has been achieved in   5 iterations

     Forces acting on atoms (cartesian axes, Ry/au):

     atom    1 type  1   force =     0.00000000   -0.00000000    0.00000000
     atom    2 type  1   force =     0.00000000    0.00000000    0.00000000
     The non-local contrib.  to forces
     atom    1 type  1   force =     0.00000000    0.00000000    0.00000000
     atom    2 type  1   force =     0.00000000    0.00000000    0.00000000
     The ionic contribution  to forces
     atom    1 type  1   force =    -0.00000001    0.00000000   -0.00000000
     atom    2 type  1   force =     0.00000001   -0.00000000   -0.00000000
     The local contribution  to forces
     atom    1 type  1   force =     0.00000000   -0.00000000    0.00000000
     atom    2 type  1   force =     0.00000001   -0.00000000    0.00000000
     The core correction contribution to forces
     atom    1 type  1   force =     0.00000000   -0.00000000    0.00000000
     atom    2 type  1   force =    -0.00000000    0.00000000    0.00000000
     The Hubbard contrib.    to forces
     atom    1 type  1   force =     0.00000000    0.00000000    0.00000000
     atom    2 type  1   force =     0.00000000    0.00000000    0.00000000
     The SCF correction term to forces
     atom    1 type  1   force =     0.00000000   -0.00000000    0.00000000
     atom    2 type  1   force =    -0.00000000    0.00000000    0.00000000

     Total force =     0.000000     Total SCF correction =     0.000000


     Computing stress (Cartesian axis) and pressure

          total   stress  (Ry/bohr**3)                   (kbar)     P=      -14.25
  -0.00010266   0.00000000   0.00000000          -15.10        0.00        0.00
   0.00000000  -0.00010266   0.00000000            0.00      -15.10        0.00
   0.00000000   0.00000000  -0.00008519            0.00        0.00      -12.53

     kinetic stress (kbar)   3110.92      0.00      0.00
                                0.00   3110.92      0.00
                                0.00      0.00   3410.43

     local   stress (kbar) -47077.76      0.00      0.00
                                0.00 -47077.76      0.00
                                0.00      0.00  48049.30

     nonloc. stress (kbar)   -377.68     -0.00      0.00
                               -0.00   -377.68     -0.00
                                0.00     -0.00   -316.42

     hartree stress (kbar)  22205.93      0.00     -0.00
                                0.00  22205.93     -0.00
                               -0.00     -0.00 -21975.59

     exc-cor stress (kbar)   -240.44      0.00      0.00
                                0.00   -240.44      0.00
                                0.00      0.00   -240.44

     corecor stress (kbar)   -469.59      0.00     -0.00
                                0.00   -469.59      0.00
                               -0.00      0.00   -457.44

     ewald   stress (kbar)  22833.51     -0.00     -0.00
                               -0.00  22833.51     -0.00
                               -0.00     -0.00 -28482.36

     hubbard stress (kbar)      0.00      0.00      0.00
                                0.00      0.00      0.00
                                0.00      0.00      0.00

     DFT-D   stress (kbar)      0.00      0.00      0.00
                                0.00      0.00      0.00
                                0.00      0.00      0.00

     XDM     stress (kbar)      0.00      0.00      0.00
                                0.00      0.00      0.00
                                0.00      0.00      0.00

     dft-nl  stress (kbar)      0.00      0.00      0.00
                                0.00      0.00      0.00
                                0.00      0.00      0.00

     TS-vdW  stress (kbar)      0.00      0.00      0.00
                                0.00      0.00      0.00
                                0.00      0.00      0.00



     Writing output data file ./tmp/graphene.save/

     init_run     :      3.32s CPU      1.52s WALL (       1 calls)
     electrons    :     76.65s CPU     33.80s WALL (       1 calls)
     forces       :      0.61s CPU      0.22s WALL (       1 calls)
     stress       :      3.65s CPU      1.77s WALL (       1 calls)

     Called by init_run:
     wfcinit      :      3.24s CPU      1.42s WALL (       1 calls)
     wfcinit:atom :      0.15s CPU      0.05s WALL (      61 calls)
     wfcinit:wfcr :      2.57s CPU      1.17s WALL (      61 calls)
     potinit      :      0.01s CPU      0.01s WALL (       1 calls)
     hinit0       :      0.05s CPU      0.05s WALL (       1 calls)

     Called by electrons:
     c_bands      :     73.66s CPU     31.53s WALL (       5 calls)
     sum_band     :      2.91s CPU      2.20s WALL (       5 calls)
     v_of_rho     :      0.03s CPU      0.04s WALL (       6 calls)
     v_h          :      0.01s CPU      0.01s WALL (       6 calls)
     v_xc         :      0.06s CPU      0.04s WALL (       8 calls)
     mix_rho      :      0.03s CPU      0.03s WALL (       5 calls)

     Called by c_bands:
     init_us_2    :      1.74s CPU      0.75s WALL (     793 calls)
     cegterg      :     70.33s CPU     30.21s WALL (     305 calls)

     Called by sum_band:
     sum_band:wei :      0.01s CPU      0.00s WALL (       5 calls)
     sum_band:loo :      2.88s CPU      2.17s WALL (       5 calls)
     sum_band:buf :      0.08s CPU      0.06s WALL (     305 calls)
     sum_band:ini :      0.33s CPU      0.25s WALL (     305 calls)

     Called by *egterg:
     cdiaghg      :      1.19s CPU      0.36s WALL (    2059 calls)
     cegterg:over :      2.93s CPU      1.23s WALL (    1754 calls)
     cegterg:upda :      2.19s CPU      1.04s WALL (    1754 calls)
     cegterg:last :      2.59s CPU      1.00s WALL (     879 calls)
     h_psi        :     62.01s CPU     27.15s WALL (    2120 calls)
     g_psi        :      0.79s CPU      0.22s WALL (    1754 calls)

     Called by h_psi:
     h_psi:calbec :      5.65s CPU      3.50s WALL (    2120 calls)
     vloc_psi     :     52.87s CPU     22.19s WALL (    2120 calls)
     add_vuspsi   :      2.90s CPU      1.24s WALL (    2120 calls)

     General routines
     calbec       :      5.99s CPU      3.68s WALL (    2425 calls)
     fft          :      0.06s CPU      0.04s WALL (      25 calls)
     ffts         :      0.01s CPU      0.01s WALL (       5 calls)
     fftw         :     43.70s CPU     18.98s WALL (   20080 calls)

     Parallel routines

     PWSCF        :   1m24.46s CPU     37.48s WALL


   This run was terminated on:  12:35:47  14Feb2024            

=------------------------------------------------------------------------------=
   JOB DONE.
=------------------------------------------------------------------------------=
