
     Program PWSCF v.6.7MaX starts on 14Feb2024 at 12:37:23 

     This program is part of the open-source Quantum ESPRESSO suite
     for quantum simulation of materials; please cite
         "P. Giannozzi et al., J. Phys.:Condens. Matter 21 395502 (2009);
         "P. Giannozzi et al., J. Phys.:Condens. Matter 29 465901 (2017);
          URL http://www.quantum-espresso.org", 
     in publications or presentations arising from this work. More details at
     http://www.quantum-espresso.org/quote

     Parallel version (MPI), running on     1 processors

     MPI processes distributed on     1 nodes
     Waiting for input...
     Reading input from standard input

     Current dimensions of program PWSCF are:
     Max number of different atomic species (ntypx) = 10
     Max number of k-points (npk) =  40000
     Max angular momentum in pseudopotentials (lmaxx) =  3
     Message from routine read_pp_mesh:
     mesh size missing, using the one in header

     Subspace diagonalization in iterative solution of the eigenvalue problem:
     a serial algorithm will be used


     G-vector sticks info
     --------------------
     sticks:   dense  smooth     PW     G-vecs:    dense   smooth      PW
     Sum         361     361    109                32597    32597    5621



     bravais-lattice index     =            4
     lattice parameter (alat)  =       4.6350  a.u.
     unit-cell volume          =     517.4056 (a.u.)^3
     number of atoms/cell      =            2
     number of atomic types    =            1
     number of electrons       =         8.00
     number of Kohn-Sham states=            8
     kinetic-energy cutoff     =      60.0000  Ry
     charge density cutoff     =     240.0000  Ry
     scf convergence threshold =      1.0E-06
     mixing beta               =       0.7000
     number of iterations used =            8  plain     mixing
     Exchange-correlation= PZ
                           (   1   1   0   0   0   0   0)

     celldm(1)=   4.635000  celldm(2)=   0.000000  celldm(3)=   6.000000
     celldm(4)=   0.000000  celldm(5)=   0.000000  celldm(6)=   0.000000

     crystal axes: (cart. coord. in units of alat)
               a(1) = (   1.000000   0.000000   0.000000 )  
               a(2) = (  -0.500000   0.866025   0.000000 )  
               a(3) = (   0.000000   0.000000   6.000000 )  

     reciprocal axes: (cart. coord. in units 2 pi/alat)
               b(1) = (  1.000000  0.577350 -0.000000 )  
               b(2) = (  0.000000  1.154701  0.000000 )  
               b(3) = (  0.000000 -0.000000  0.166667 )  


     PseudoPot. # 1 for C  read from file:
     ../../../../Pseudo/LDA/C.upf
     MD5 check sum: 9ef9f0a1c6c947210c7947280cfb54e2
     Pseudo is Norm-conserving + core correction, Zval =  4.0
     Generated using ONCVPSP code by D. R. Hamann
     Using radial grid of 1230 points,  4 beta functions with: 
                l(1) =   0
                l(2) =   0
                l(3) =   1
                l(4) =   1

     atomic species   valence    mass     pseudopotential
        C              4.00    12.01100     C ( 1.00)

     24 Sym. Ops., with inversion, found (12 have fractional translation)


                                    s                        frac. trans.

      isym =  1     identity                                     

 cryst.   s( 1) = (     1          0          0      )
                  (     0          1          0      )
                  (     0          0          1      )

 cart.    s( 1) = (  1.0000000  0.0000000  0.0000000 )
                  (  0.0000000  1.0000000  0.0000000 )
                  (  0.0000000  0.0000000  1.0000000 )


      isym =  2     180 deg rotation - cart. axis [0,0,1]        

 cryst.   s( 2) = (    -1          0          0      )    f =( -0.3333333 )
                  (     0         -1          0      )       (  0.3333333 )
                  (     0          0          1      )       (  0.0000000 )

 cart.    s( 2) = ( -1.0000000  0.0000000  0.0000000 )    f =( -0.5000000 )
                  (  0.0000000 -1.0000000  0.0000000 )       (  0.2886751 )
                  (  0.0000000  0.0000000  1.0000000 )       (  0.0000000 )


      isym =  3     180 deg rotation - cart. axis [0,1,0]        

 cryst.   s( 3) = (    -1          0          0      )
                  (     1          1          0      )
                  (     0          0         -1      )

 cart.    s( 3) = ( -1.0000000  0.0000000  0.0000000 )
                  (  0.0000000  1.0000000  0.0000000 )
                  (  0.0000000  0.0000000 -1.0000000 )


      isym =  4     180 deg rotation - cart. axis [1,0,0]        

 cryst.   s( 4) = (     1          0          0      )    f =( -0.3333333 )
                  (    -1         -1          0      )       (  0.3333333 )
                  (     0          0         -1      )       (  0.0000000 )

 cart.    s( 4) = (  1.0000000  0.0000000  0.0000000 )    f =( -0.5000000 )
                  (  0.0000000 -1.0000000  0.0000000 )       (  0.2886751 )
                  (  0.0000000  0.0000000 -1.0000000 )       (  0.0000000 )


      isym =  5      60 deg rotation - cryst. axis [0,0,1]       

 cryst.   s( 5) = (     1          1          0      )    f =( -0.3333333 )
                  (    -1          0          0      )       (  0.3333333 )
                  (     0          0          1      )       (  0.0000000 )

 cart.    s( 5) = (  0.5000000 -0.8660254  0.0000000 )    f =( -0.5000000 )
                  (  0.8660254  0.5000000  0.0000000 )       (  0.2886751 )
                  (  0.0000000  0.0000000  1.0000000 )       (  0.0000000 )


      isym =  6      60 deg rotation - cryst. axis [0,0,-1]      

 cryst.   s( 6) = (     0         -1          0      )    f =( -0.3333333 )
                  (     1          1          0      )       (  0.3333333 )
                  (     0          0          1      )       (  0.0000000 )

 cart.    s( 6) = (  0.5000000  0.8660254  0.0000000 )    f =( -0.5000000 )
                  ( -0.8660254  0.5000000  0.0000000 )       (  0.2886751 )
                  (  0.0000000  0.0000000  1.0000000 )       (  0.0000000 )


      isym =  7     120 deg rotation - cryst. axis [0,0,1]       

 cryst.   s( 7) = (     0          1          0      )
                  (    -1         -1          0      )
                  (     0          0          1      )

 cart.    s( 7) = ( -0.5000000 -0.8660254  0.0000000 )
                  (  0.8660254 -0.5000000  0.0000000 )
                  (  0.0000000  0.0000000  1.0000000 )


      isym =  8     120 deg rotation - cryst. axis [0,0,-1]      

 cryst.   s( 8) = (    -1         -1          0      )
                  (     1          0          0      )
                  (     0          0          1      )

 cart.    s( 8) = ( -0.5000000  0.8660254  0.0000000 )
                  ( -0.8660254 -0.5000000  0.0000000 )
                  (  0.0000000  0.0000000  1.0000000 )


      isym =  9     180 deg rotation - cryst. axis [1,-1,0]      

 cryst.   s( 9) = (     0         -1          0      )
                  (    -1          0          0      )
                  (     0          0         -1      )

 cart.    s( 9) = (  0.5000000 -0.8660254  0.0000000 )
                  ( -0.8660254 -0.5000000  0.0000000 )
                  (  0.0000000  0.0000000 -1.0000000 )


      isym = 10     180 deg rotation - cryst. axis [2,1,0]       

 cryst.   s(10) = (     1          1          0      )
                  (     0         -1          0      )
                  (     0          0         -1      )

 cart.    s(10) = (  0.5000000  0.8660254  0.0000000 )
                  (  0.8660254 -0.5000000  0.0000000 )
                  (  0.0000000  0.0000000 -1.0000000 )


      isym = 11     180 deg rotation - cryst. axis [0,1,0]       

 cryst.   s(11) = (    -1         -1          0      )    f =( -0.3333333 )
                  (     0          1          0      )       (  0.3333333 )
                  (     0          0         -1      )       (  0.0000000 )

 cart.    s(11) = ( -0.5000000 -0.8660254  0.0000000 )    f =( -0.5000000 )
                  ( -0.8660254  0.5000000  0.0000000 )       (  0.2886751 )
                  (  0.0000000  0.0000000 -1.0000000 )       (  0.0000000 )


      isym = 12     180 deg rotation - cryst. axis [1,1,0]       

 cryst.   s(12) = (     0          1          0      )    f =( -0.3333333 )
                  (     1          0          0      )       (  0.3333333 )
                  (     0          0         -1      )       (  0.0000000 )

 cart.    s(12) = ( -0.5000000  0.8660254  0.0000000 )    f =( -0.5000000 )
                  (  0.8660254  0.5000000  0.0000000 )       (  0.2886751 )
                  (  0.0000000  0.0000000 -1.0000000 )       (  0.0000000 )


      isym = 13     inversion                                    

 cryst.   s(13) = (    -1          0          0      )    f =( -0.3333333 )
                  (     0         -1          0      )       (  0.3333333 )
                  (     0          0         -1      )       (  0.0000000 )

 cart.    s(13) = ( -1.0000000  0.0000000  0.0000000 )    f =( -0.5000000 )
                  (  0.0000000 -1.0000000  0.0000000 )       (  0.2886751 )
                  (  0.0000000  0.0000000 -1.0000000 )       (  0.0000000 )


      isym = 14     inv. 180 deg rotation - cart. axis [0,0,1]   

 cryst.   s(14) = (     1          0          0      )
                  (     0          1          0      )
                  (     0          0         -1      )

 cart.    s(14) = (  1.0000000  0.0000000  0.0000000 )
                  (  0.0000000  1.0000000  0.0000000 )
                  (  0.0000000  0.0000000 -1.0000000 )


      isym = 15     inv. 180 deg rotation - cart. axis [0,1,0]   

 cryst.   s(15) = (     1          0          0      )    f =( -0.3333333 )
                  (    -1         -1          0      )       (  0.3333333 )
                  (     0          0          1      )       (  0.0000000 )

 cart.    s(15) = (  1.0000000  0.0000000  0.0000000 )    f =( -0.5000000 )
                  (  0.0000000 -1.0000000  0.0000000 )       (  0.2886751 )
                  (  0.0000000  0.0000000  1.0000000 )       (  0.0000000 )


      isym = 16     inv. 180 deg rotation - cart. axis [1,0,0]   

 cryst.   s(16) = (    -1          0          0      )
                  (     1          1          0      )
                  (     0          0          1      )

 cart.    s(16) = ( -1.0000000  0.0000000  0.0000000 )
                  (  0.0000000  1.0000000  0.0000000 )
                  (  0.0000000  0.0000000  1.0000000 )


      isym = 17     inv.  60 deg rotation - cryst. axis [0,0,1]  

 cryst.   s(17) = (    -1         -1          0      )
                  (     1          0          0      )
                  (     0          0         -1      )

 cart.    s(17) = ( -0.5000000  0.8660254  0.0000000 )
                  ( -0.8660254 -0.5000000  0.0000000 )
                  (  0.0000000  0.0000000 -1.0000000 )


      isym = 18     inv.  60 deg rotation - cryst. axis [0,0,-1] 

 cryst.   s(18) = (     0          1          0      )
                  (    -1         -1          0      )
                  (     0          0         -1      )

 cart.    s(18) = ( -0.5000000 -0.8660254  0.0000000 )
                  (  0.8660254 -0.5000000  0.0000000 )
                  (  0.0000000  0.0000000 -1.0000000 )


      isym = 19     inv. 120 deg rotation - cryst. axis [0,0,1]  

 cryst.   s(19) = (     0         -1          0      )    f =( -0.3333333 )
                  (     1          1          0      )       (  0.3333333 )
                  (     0          0         -1      )       (  0.0000000 )

 cart.    s(19) = (  0.5000000  0.8660254  0.0000000 )    f =( -0.5000000 )
                  ( -0.8660254  0.5000000  0.0000000 )       (  0.2886751 )
                  (  0.0000000  0.0000000 -1.0000000 )       (  0.0000000 )


      isym = 20     inv. 120 deg rotation - cryst. axis [0,0,-1] 

 cryst.   s(20) = (     1          1          0      )    f =( -0.3333333 )
                  (    -1          0          0      )       (  0.3333333 )
                  (     0          0         -1      )       (  0.0000000 )

 cart.    s(20) = (  0.5000000 -0.8660254  0.0000000 )    f =( -0.5000000 )
                  (  0.8660254  0.5000000  0.0000000 )       (  0.2886751 )
                  (  0.0000000  0.0000000 -1.0000000 )       (  0.0000000 )


      isym = 21     inv. 180 deg rotation - cryst. axis [1,-1,0] 

 cryst.   s(21) = (     0          1          0      )    f =( -0.3333333 )
                  (     1          0          0      )       (  0.3333333 )
                  (     0          0          1      )       (  0.0000000 )

 cart.    s(21) = ( -0.5000000  0.8660254  0.0000000 )    f =( -0.5000000 )
                  (  0.8660254  0.5000000  0.0000000 )       (  0.2886751 )
                  (  0.0000000  0.0000000  1.0000000 )       (  0.0000000 )


      isym = 22     inv. 180 deg rotation - cryst. axis [2,1,0]  

 cryst.   s(22) = (    -1         -1          0      )    f =( -0.3333333 )
                  (     0          1          0      )       (  0.3333333 )
                  (     0          0          1      )       (  0.0000000 )

 cart.    s(22) = ( -0.5000000 -0.8660254  0.0000000 )    f =( -0.5000000 )
                  ( -0.8660254  0.5000000  0.0000000 )       (  0.2886751 )
                  (  0.0000000  0.0000000  1.0000000 )       (  0.0000000 )


      isym = 23     inv. 180 deg rotation - cryst. axis [0,1,0]  

 cryst.   s(23) = (     1          1          0      )
                  (     0         -1          0      )
                  (     0          0          1      )

 cart.    s(23) = (  0.5000000  0.8660254  0.0000000 )
                  (  0.8660254 -0.5000000  0.0000000 )
                  (  0.0000000  0.0000000  1.0000000 )


      isym = 24     inv. 180 deg rotation - cryst. axis [1,1,0]  

 cryst.   s(24) = (     0         -1          0      )
                  (    -1          0          0      )
                  (     0          0          1      )

 cart.    s(24) = (  0.5000000 -0.8660254  0.0000000 )
                  ( -0.8660254 -0.5000000  0.0000000 )
                  (  0.0000000  0.0000000  1.0000000 )


     point group D_6h(6/mmm)
     there are 12 classes
     the character table:

       E     2C6   2C3   C2    3C2'  3C2'' i     2S3   2S6   s_h   3s_d  3s_v 
A_1g   1.00  1.00  1.00  1.00  1.00  1.00  1.00  1.00  1.00  1.00  1.00  1.00
A_2g   1.00  1.00  1.00  1.00 -1.00 -1.00  1.00  1.00  1.00  1.00 -1.00 -1.00
B_1g   1.00 -1.00  1.00 -1.00  1.00 -1.00  1.00 -1.00  1.00 -1.00  1.00 -1.00
B_2g   1.00 -1.00  1.00 -1.00 -1.00  1.00  1.00 -1.00  1.00 -1.00 -1.00  1.00
E_1g   2.00  1.00 -1.00 -2.00  0.00  0.00  2.00  1.00 -1.00 -2.00  0.00  0.00
E_2g   2.00 -1.00 -1.00  2.00  0.00  0.00  2.00 -1.00 -1.00  2.00  0.00  0.00
A_1u   1.00  1.00  1.00  1.00  1.00  1.00 -1.00 -1.00 -1.00 -1.00 -1.00 -1.00
A_2u   1.00  1.00  1.00  1.00 -1.00 -1.00 -1.00 -1.00 -1.00 -1.00  1.00  1.00
B_1u   1.00 -1.00  1.00 -1.00  1.00 -1.00 -1.00  1.00 -1.00  1.00 -1.00  1.00
B_2u   1.00 -1.00  1.00 -1.00 -1.00  1.00 -1.00  1.00 -1.00  1.00  1.00 -1.00
E_1u   2.00  1.00 -1.00 -2.00  0.00  0.00 -2.00 -1.00  1.00  2.00  0.00  0.00
E_2u   2.00 -1.00 -1.00  2.00  0.00  0.00 -2.00  1.00  1.00 -2.00  0.00  0.00

     the symmetry operations in each class and the name of the first element:

     E        1
          identity                                               
     2C6      5    6
           60 deg rotation - cryst. axis [0,0,1]                 
     2C3      7    8
          120 deg rotation - cryst. axis [0,0,1]                 
     C2       2
          180 deg rotation - cart. axis [0,0,1]                  
     3C2'     4   12   11
          180 deg rotation - cart. axis [1,0,0]                  
     3C2''    3    9   10
          180 deg rotation - cart. axis [0,1,0]                  
     i       13
          inversion                                              
     2S3     17   18
          inv.  60 deg rotation - cryst. axis [0,0,1]            
     2S6     19   20
          inv. 120 deg rotation - cryst. axis [0,0,1]            
     s_h     14
          inv. 180 deg rotation - cart. axis [0,0,1]             
     3s_d    16   24   23
          inv. 180 deg rotation - cart. axis [1,0,0]             
     3s_v    15   21   22
          inv. 180 deg rotation - cart. axis [0,1,0]             

   Cartesian axes

     site n.     atom                  positions (alat units)
         1           C   tau(   1) = (   0.0000000   0.0000000   0.0000000  )
         2           C   tau(   2) = (  -0.0000000   0.5773503   0.0000000  )

   Crystallographic axes

     site n.     atom                  positions (cryst. coord.)
         1           C   tau(   1) = (  0.0000000  0.0000000  0.0000000  )
         2           C   tau(   2) = (  0.3333333  0.6666667  0.0000000  )

     number of k points=   102  Marzari-Vanderbilt smearing, width (Ry)=  0.0100
                       cart. coord. in units 2pi/alat
        k(    1) = (   0.0000000   0.0000000   0.0000000), wk =   0.0019531
        k(    2) = (   0.0000000   0.0360844   0.0000000), wk =   0.0117188
        k(    3) = (   0.0000000   0.0721688   0.0000000), wk =   0.0117188
        k(    4) = (   0.0000000   0.1082532   0.0000000), wk =   0.0117188
        k(    5) = (   0.0000000   0.1443376   0.0000000), wk =   0.0117188
        k(    6) = (   0.0000000   0.1804220   0.0000000), wk =   0.0117188
        k(    7) = (   0.0000000   0.2165064   0.0000000), wk =   0.0117188
        k(    8) = (   0.0000000   0.2525907   0.0000000), wk =   0.0117188
        k(    9) = (   0.0000000   0.2886751   0.0000000), wk =   0.0117188
        k(   10) = (   0.0000000   0.3247595   0.0000000), wk =   0.0117188
        k(   11) = (   0.0000000   0.3608439   0.0000000), wk =   0.0117188
        k(   12) = (   0.0000000   0.3969283   0.0000000), wk =   0.0117188
        k(   13) = (   0.0000000   0.4330127   0.0000000), wk =   0.0117188
        k(   14) = (   0.0000000   0.4690971   0.0000000), wk =   0.0117188
        k(   15) = (   0.0000000   0.5051815   0.0000000), wk =   0.0117188
        k(   16) = (   0.0000000   0.5412659   0.0000000), wk =   0.0117188
        k(   17) = (   0.0000000  -0.5773503   0.0000000), wk =   0.0058594
        k(   18) = (   0.0312500   0.0541266   0.0000000), wk =   0.0117188
        k(   19) = (   0.0312500   0.0902110   0.0000000), wk =   0.0234375
        k(   20) = (   0.0312500   0.1262954   0.0000000), wk =   0.0234375
        k(   21) = (   0.0312500   0.1623798   0.0000000), wk =   0.0234375
        k(   22) = (   0.0312500   0.1984642   0.0000000), wk =   0.0234375
        k(   23) = (   0.0312500   0.2345485   0.0000000), wk =   0.0234375
        k(   24) = (   0.0312500   0.2706329   0.0000000), wk =   0.0234375
        k(   25) = (   0.0312500   0.3067173   0.0000000), wk =   0.0234375
        k(   26) = (   0.0312500   0.3428017   0.0000000), wk =   0.0234375
        k(   27) = (   0.0312500   0.3788861   0.0000000), wk =   0.0234375
        k(   28) = (   0.0312500   0.4149705   0.0000000), wk =   0.0234375
        k(   29) = (   0.0312500   0.4510549   0.0000000), wk =   0.0234375
        k(   30) = (   0.0312500   0.4871393   0.0000000), wk =   0.0234375
        k(   31) = (   0.0312500   0.5232237   0.0000000), wk =   0.0234375
        k(   32) = (   0.0312500   0.5593081   0.0000000), wk =   0.0234375
        k(   33) = (   0.0625000   0.1082532   0.0000000), wk =   0.0117188
        k(   34) = (   0.0625000   0.1443376   0.0000000), wk =   0.0234375
        k(   35) = (   0.0625000   0.1804220   0.0000000), wk =   0.0234375
        k(   36) = (   0.0625000   0.2165064   0.0000000), wk =   0.0234375
        k(   37) = (   0.0625000   0.2525907   0.0000000), wk =   0.0234375
        k(   38) = (   0.0625000   0.2886751   0.0000000), wk =   0.0234375
        k(   39) = (   0.0625000   0.3247595   0.0000000), wk =   0.0234375
        k(   40) = (   0.0625000   0.3608439   0.0000000), wk =   0.0234375
        k(   41) = (   0.0625000   0.3969283   0.0000000), wk =   0.0234375
        k(   42) = (   0.0625000   0.4330127   0.0000000), wk =   0.0234375
        k(   43) = (   0.0625000   0.4690971   0.0000000), wk =   0.0234375
        k(   44) = (   0.0625000   0.5051815   0.0000000), wk =   0.0234375
        k(   45) = (   0.0625000   0.5412659   0.0000000), wk =   0.0234375
        k(   46) = (   0.0625000   0.5773503   0.0000000), wk =   0.0117188
        k(   47) = (   0.0937500   0.1623798   0.0000000), wk =   0.0117188
        k(   48) = (   0.0937500   0.1984642   0.0000000), wk =   0.0234375
        k(   49) = (   0.0937500   0.2345485   0.0000000), wk =   0.0234375
        k(   50) = (   0.0937500   0.2706329   0.0000000), wk =   0.0234375
        k(   51) = (   0.0937500   0.3067173   0.0000000), wk =   0.0234375
        k(   52) = (   0.0937500   0.3428017   0.0000000), wk =   0.0234375
        k(   53) = (   0.0937500   0.3788861   0.0000000), wk =   0.0234375
        k(   54) = (   0.0937500   0.4149705   0.0000000), wk =   0.0234375
        k(   55) = (   0.0937500   0.4510549   0.0000000), wk =   0.0234375
        k(   56) = (   0.0937500   0.4871393   0.0000000), wk =   0.0234375
        k(   57) = (   0.0937500   0.5232237   0.0000000), wk =   0.0234375
        k(   58) = (   0.0937500   0.5593081   0.0000000), wk =   0.0234375
        k(   59) = (   0.1250000   0.2165064   0.0000000), wk =   0.0117188
        k(   60) = (   0.1250000   0.2525907   0.0000000), wk =   0.0234375
        k(   61) = (   0.1250000   0.2886751   0.0000000), wk =   0.0234375
        k(   62) = (   0.1250000   0.3247595   0.0000000), wk =   0.0234375
        k(   63) = (   0.1250000   0.3608439   0.0000000), wk =   0.0234375
        k(   64) = (   0.1250000   0.3969283   0.0000000), wk =   0.0234375
        k(   65) = (   0.1250000   0.4330127   0.0000000), wk =   0.0234375
        k(   66) = (   0.1250000   0.4690971   0.0000000), wk =   0.0234375
        k(   67) = (   0.1250000   0.5051815   0.0000000), wk =   0.0234375
        k(   68) = (   0.1250000   0.5412659   0.0000000), wk =   0.0234375
        k(   69) = (   0.1250000   0.5773503   0.0000000), wk =   0.0117188
        k(   70) = (   0.1562500   0.2706329   0.0000000), wk =   0.0117188
        k(   71) = (   0.1562500   0.3067173   0.0000000), wk =   0.0234375
        k(   72) = (   0.1562500   0.3428017   0.0000000), wk =   0.0234375
        k(   73) = (   0.1562500   0.3788861   0.0000000), wk =   0.0234375
        k(   74) = (   0.1562500   0.4149705   0.0000000), wk =   0.0234375
        k(   75) = (   0.1562500   0.4510549   0.0000000), wk =   0.0234375
        k(   76) = (   0.1562500   0.4871393   0.0000000), wk =   0.0234375
        k(   77) = (   0.1562500   0.5232237   0.0000000), wk =   0.0234375
        k(   78) = (   0.1562500   0.5593081   0.0000000), wk =   0.0234375
        k(   79) = (   0.1875000   0.3247595   0.0000000), wk =   0.0117188
        k(   80) = (   0.1875000   0.3608439   0.0000000), wk =   0.0234375
        k(   81) = (   0.1875000   0.3969283   0.0000000), wk =   0.0234375
        k(   82) = (   0.1875000   0.4330127   0.0000000), wk =   0.0234375
        k(   83) = (   0.1875000   0.4690971   0.0000000), wk =   0.0234375
        k(   84) = (   0.1875000   0.5051815   0.0000000), wk =   0.0234375
        k(   85) = (   0.1875000   0.5412659   0.0000000), wk =   0.0234375
        k(   86) = (   0.1875000   0.5773503   0.0000000), wk =   0.0117188
        k(   87) = (   0.2187500   0.3788861   0.0000000), wk =   0.0117188
        k(   88) = (   0.2187500   0.4149705   0.0000000), wk =   0.0234375
        k(   89) = (   0.2187500   0.4510549   0.0000000), wk =   0.0234375
        k(   90) = (   0.2187500   0.4871393   0.0000000), wk =   0.0234375
        k(   91) = (   0.2187500   0.5232237   0.0000000), wk =   0.0234375
        k(   92) = (   0.2187500   0.5593081   0.0000000), wk =   0.0234375
        k(   93) = (   0.2500000   0.4330127   0.0000000), wk =   0.0117188
        k(   94) = (   0.2500000   0.4690971   0.0000000), wk =   0.0234375
        k(   95) = (   0.2500000   0.5051815   0.0000000), wk =   0.0234375
        k(   96) = (   0.2500000   0.5412659   0.0000000), wk =   0.0234375
        k(   97) = (   0.2500000   0.5773503   0.0000000), wk =   0.0117188
        k(   98) = (   0.2812500   0.4871393   0.0000000), wk =   0.0117188
        k(   99) = (   0.2812500   0.5232237   0.0000000), wk =   0.0234375
        k(  100) = (   0.2812500   0.5593081   0.0000000), wk =   0.0234375
        k(  101) = (   0.3125000   0.5412659   0.0000000), wk =   0.0117188
        k(  102) = (   0.3125000   0.5773503   0.0000000), wk =   0.0117188

                       cryst. coord.
        k(    1) = (   0.0000000   0.0000000   0.0000000), wk =   0.0019531
        k(    2) = (   0.0000000   0.0312500   0.0000000), wk =   0.0117188
        k(    3) = (   0.0000000   0.0625000   0.0000000), wk =   0.0117188
        k(    4) = (   0.0000000   0.0937500   0.0000000), wk =   0.0117188
        k(    5) = (   0.0000000   0.1250000   0.0000000), wk =   0.0117188
        k(    6) = (   0.0000000   0.1562500   0.0000000), wk =   0.0117188
        k(    7) = (   0.0000000   0.1875000   0.0000000), wk =   0.0117188
        k(    8) = (   0.0000000   0.2187500   0.0000000), wk =   0.0117188
        k(    9) = (   0.0000000   0.2500000   0.0000000), wk =   0.0117188
        k(   10) = (   0.0000000   0.2812500   0.0000000), wk =   0.0117188
        k(   11) = (   0.0000000   0.3125000   0.0000000), wk =   0.0117188
        k(   12) = (   0.0000000   0.3437500   0.0000000), wk =   0.0117188
        k(   13) = (   0.0000000   0.3750000   0.0000000), wk =   0.0117188
        k(   14) = (   0.0000000   0.4062500   0.0000000), wk =   0.0117188
        k(   15) = (   0.0000000   0.4375000   0.0000000), wk =   0.0117188
        k(   16) = (   0.0000000   0.4687500   0.0000000), wk =   0.0117188
        k(   17) = (   0.0000000  -0.5000000   0.0000000), wk =   0.0058594
        k(   18) = (   0.0312500   0.0312500   0.0000000), wk =   0.0117188
        k(   19) = (   0.0312500   0.0625000   0.0000000), wk =   0.0234375
        k(   20) = (   0.0312500   0.0937500   0.0000000), wk =   0.0234375
        k(   21) = (   0.0312500   0.1250000   0.0000000), wk =   0.0234375
        k(   22) = (   0.0312500   0.1562500   0.0000000), wk =   0.0234375
        k(   23) = (   0.0312500   0.1875000   0.0000000), wk =   0.0234375
        k(   24) = (   0.0312500   0.2187500   0.0000000), wk =   0.0234375
        k(   25) = (   0.0312500   0.2500000   0.0000000), wk =   0.0234375
        k(   26) = (   0.0312500   0.2812500   0.0000000), wk =   0.0234375
        k(   27) = (   0.0312500   0.3125000   0.0000000), wk =   0.0234375
        k(   28) = (   0.0312500   0.3437500   0.0000000), wk =   0.0234375
        k(   29) = (   0.0312500   0.3750000   0.0000000), wk =   0.0234375
        k(   30) = (   0.0312500   0.4062500   0.0000000), wk =   0.0234375
        k(   31) = (   0.0312500   0.4375000   0.0000000), wk =   0.0234375
        k(   32) = (   0.0312500   0.4687500   0.0000000), wk =   0.0234375
        k(   33) = (   0.0625000   0.0625000   0.0000000), wk =   0.0117188
        k(   34) = (   0.0625000   0.0937500   0.0000000), wk =   0.0234375
        k(   35) = (   0.0625000   0.1250000   0.0000000), wk =   0.0234375
        k(   36) = (   0.0625000   0.1562500   0.0000000), wk =   0.0234375
        k(   37) = (   0.0625000   0.1875000   0.0000000), wk =   0.0234375
        k(   38) = (   0.0625000   0.2187500   0.0000000), wk =   0.0234375
        k(   39) = (   0.0625000   0.2500000   0.0000000), wk =   0.0234375
        k(   40) = (   0.0625000   0.2812500   0.0000000), wk =   0.0234375
        k(   41) = (   0.0625000   0.3125000   0.0000000), wk =   0.0234375
        k(   42) = (   0.0625000   0.3437500   0.0000000), wk =   0.0234375
        k(   43) = (   0.0625000   0.3750000   0.0000000), wk =   0.0234375
        k(   44) = (   0.0625000   0.4062500   0.0000000), wk =   0.0234375
        k(   45) = (   0.0625000   0.4375000   0.0000000), wk =   0.0234375
        k(   46) = (   0.0625000   0.4687500   0.0000000), wk =   0.0117188
        k(   47) = (   0.0937500   0.0937500   0.0000000), wk =   0.0117188
        k(   48) = (   0.0937500   0.1250000   0.0000000), wk =   0.0234375
        k(   49) = (   0.0937500   0.1562500   0.0000000), wk =   0.0234375
        k(   50) = (   0.0937500   0.1875000   0.0000000), wk =   0.0234375
        k(   51) = (   0.0937500   0.2187500   0.0000000), wk =   0.0234375
        k(   52) = (   0.0937500   0.2500000   0.0000000), wk =   0.0234375
        k(   53) = (   0.0937500   0.2812500   0.0000000), wk =   0.0234375
        k(   54) = (   0.0937500   0.3125000   0.0000000), wk =   0.0234375
        k(   55) = (   0.0937500   0.3437500   0.0000000), wk =   0.0234375
        k(   56) = (   0.0937500   0.3750000   0.0000000), wk =   0.0234375
        k(   57) = (   0.0937500   0.4062500   0.0000000), wk =   0.0234375
        k(   58) = (   0.0937500   0.4375000   0.0000000), wk =   0.0234375
        k(   59) = (   0.1250000   0.1250000   0.0000000), wk =   0.0117188
        k(   60) = (   0.1250000   0.1562500   0.0000000), wk =   0.0234375
        k(   61) = (   0.1250000   0.1875000   0.0000000), wk =   0.0234375
        k(   62) = (   0.1250000   0.2187500   0.0000000), wk =   0.0234375
        k(   63) = (   0.1250000   0.2500000   0.0000000), wk =   0.0234375
        k(   64) = (   0.1250000   0.2812500   0.0000000), wk =   0.0234375
        k(   65) = (   0.1250000   0.3125000   0.0000000), wk =   0.0234375
        k(   66) = (   0.1250000   0.3437500   0.0000000), wk =   0.0234375
        k(   67) = (   0.1250000   0.3750000   0.0000000), wk =   0.0234375
        k(   68) = (   0.1250000   0.4062500   0.0000000), wk =   0.0234375
        k(   69) = (   0.1250000   0.4375000   0.0000000), wk =   0.0117188
        k(   70) = (   0.1562500   0.1562500   0.0000000), wk =   0.0117188
        k(   71) = (   0.1562500   0.1875000   0.0000000), wk =   0.0234375
        k(   72) = (   0.1562500   0.2187500   0.0000000), wk =   0.0234375
        k(   73) = (   0.1562500   0.2500000   0.0000000), wk =   0.0234375
        k(   74) = (   0.1562500   0.2812500   0.0000000), wk =   0.0234375
        k(   75) = (   0.1562500   0.3125000   0.0000000), wk =   0.0234375
        k(   76) = (   0.1562500   0.3437500   0.0000000), wk =   0.0234375
        k(   77) = (   0.1562500   0.3750000   0.0000000), wk =   0.0234375
        k(   78) = (   0.1562500   0.4062500   0.0000000), wk =   0.0234375
        k(   79) = (   0.1875000   0.1875000   0.0000000), wk =   0.0117188
        k(   80) = (   0.1875000   0.2187500   0.0000000), wk =   0.0234375
        k(   81) = (   0.1875000   0.2500000   0.0000000), wk =   0.0234375
        k(   82) = (   0.1875000   0.2812500   0.0000000), wk =   0.0234375
        k(   83) = (   0.1875000   0.3125000   0.0000000), wk =   0.0234375
        k(   84) = (   0.1875000   0.3437500   0.0000000), wk =   0.0234375
        k(   85) = (   0.1875000   0.3750000   0.0000000), wk =   0.0234375
        k(   86) = (   0.1875000   0.4062500   0.0000000), wk =   0.0117188
        k(   87) = (   0.2187500   0.2187500   0.0000000), wk =   0.0117188
        k(   88) = (   0.2187500   0.2500000   0.0000000), wk =   0.0234375
        k(   89) = (   0.2187500   0.2812500   0.0000000), wk =   0.0234375
        k(   90) = (   0.2187500   0.3125000   0.0000000), wk =   0.0234375
        k(   91) = (   0.2187500   0.3437500   0.0000000), wk =   0.0234375
        k(   92) = (   0.2187500   0.3750000   0.0000000), wk =   0.0234375
        k(   93) = (   0.2500000   0.2500000   0.0000000), wk =   0.0117188
        k(   94) = (   0.2500000   0.2812500   0.0000000), wk =   0.0234375
        k(   95) = (   0.2500000   0.3125000   0.0000000), wk =   0.0234375
        k(   96) = (   0.2500000   0.3437500   0.0000000), wk =   0.0234375
        k(   97) = (   0.2500000   0.3750000   0.0000000), wk =   0.0117188
        k(   98) = (   0.2812500   0.2812500   0.0000000), wk =   0.0117188
        k(   99) = (   0.2812500   0.3125000   0.0000000), wk =   0.0234375
        k(  100) = (   0.2812500   0.3437500   0.0000000), wk =   0.0234375
        k(  101) = (   0.3125000   0.3125000   0.0000000), wk =   0.0117188
        k(  102) = (   0.3125000   0.3437500   0.0000000), wk =   0.0117188

     Dense  grid:    32597 G-vectors     FFT dimensions: (  24,  24, 144)

     Dynamical RAM for                 wfc:       0.50 MB

     Dynamical RAM for     wfc (w. buffer):      51.06 MB

     Dynamical RAM for           str. fact:       0.50 MB

     Dynamical RAM for           local pot:       0.00 MB

     Dynamical RAM for          nlocal pot:       0.99 MB

     Dynamical RAM for                qrad:       0.36 MB

     Dynamical RAM for          rho,v,vnew:       3.39 MB

     Dynamical RAM for               rhoin:       1.13 MB

     Dynamical RAM for            rho*nmix:       7.96 MB

     Dynamical RAM for           G-vectors:       2.11 MB

     Dynamical RAM for          h,s,v(r/c):       0.01 MB

     Dynamical RAM for          <psi|beta>:       0.00 MB

     Dynamical RAM for                 psi:       0.99 MB

     Dynamical RAM for                hpsi:       0.99 MB

     Dynamical RAM for      wfcinit/wfcrot:       0.99 MB

     Estimated static dynamical RAM per process >      71.66 MB

     Estimated max dynamical RAM per process >      73.65 MB

     Initial potential from superposition of free atoms

     starting charge    7.99992, renormalised to    8.00000

     negative rho (up, down):  2.379E-05 0.000E+00
     Starting wfcs are    8 randomized atomic wfcs

     total cpu time spent up to now is        5.3 secs

     Self-consistent Calculation

     iteration #  1     ecut=    60.00 Ry     beta= 0.70
     Davidson diagonalization with overlap
     ethr =  1.00E-02,  avg # of iterations =  6.0

     negative rho (up, down):  4.136E-07 0.000E+00

     total cpu time spent up to now is       28.5 secs

     total energy              =     -24.08183623 Ry
     estimated scf accuracy    <       0.21121100 Ry

     iteration #  2     ecut=    60.00 Ry     beta= 0.70
     Davidson diagonalization with overlap
     ethr =  2.64E-03,  avg # of iterations =  3.9

     negative rho (up, down):  2.121E-08 0.000E+00

     total cpu time spent up to now is       44.7 secs

     total energy              =     -24.11529422 Ry
     estimated scf accuracy    <       0.00218182 Ry

     iteration #  3     ecut=    60.00 Ry     beta= 0.70
     Davidson diagonalization with overlap
     c_bands:  1 eigenvalues not converged
     c_bands:  1 eigenvalues not converged
     ethr =  2.73E-05,  avg # of iterations = 10.3

     total cpu time spent up to now is       74.3 secs

     total energy              =     -24.11572466 Ry
     estimated scf accuracy    <       0.00013705 Ry

     iteration #  4     ecut=    60.00 Ry     beta= 0.70
     Davidson diagonalization with overlap
     ethr =  1.71E-06,  avg # of iterations =  5.0

     total cpu time spent up to now is       92.6 secs

     total energy              =     -24.11573777 Ry
     estimated scf accuracy    <       0.00000295 Ry

     iteration #  5     ecut=    60.00 Ry     beta= 0.70
     Davidson diagonalization with overlap
     ethr =  3.68E-08,  avg # of iterations =  3.0

     total cpu time spent up to now is      107.4 secs

     End of self-consistent calculation

          k = 0.0000 0.0000 0.0000 (  4053 PWs)   bands (ev):

   -21.3550  -9.6640  -4.9077  -4.9077   1.4502   2.5071   3.0003   4.9282

     occupation numbers 
     1.0000   1.0000   1.0000   1.0000   0.0000   0.0000   0.0000   0.0000

          k = 0.0000 0.0361 0.0000 (  4063 PWs)   bands (ev):

   -21.3319  -9.6362  -5.0016  -4.9594   1.4817   2.5389   3.0325   4.9597

     occupation numbers 
     1.0000   1.0000   1.0000   1.0000   0.0000   0.0000   0.0000   0.0000

          k = 0.0000 0.0722 0.0000 (  4058 PWs)   bands (ev):

   -21.2625  -9.5515  -5.2776  -5.1086   1.5760   2.6345   3.1292   5.0547

     occupation numbers 
     1.0000   1.0000   1.0000   1.0000   0.0000   0.0000   0.0000   0.0000

          k = 0.0000 0.1083 0.0000 (  4068 PWs)   bands (ev):

   -21.1469  -9.4116  -5.7132  -5.3387   1.7333   2.7935   3.2905   5.2127

     occupation numbers 
     1.0000   1.0000   1.0000   1.0000   0.0000   0.0000   0.0000   0.0000

          k = 0.0000 0.1443 0.0000 (  4068 PWs)   bands (ev):

   -20.9854  -9.2160  -6.2772  -5.6282   1.9535   3.0159   3.5163   5.4329

     occupation numbers 
     1.0000   1.0000   1.0000   1.0000   0.0000   0.0000   0.0000   0.0000

          k = 0.0000 0.1804 0.0000 (  4070 PWs)   bands (ev):

   -20.7781  -8.9663  -6.9416  -5.9530   2.2367   3.3013   3.8064   5.7154

     occupation numbers 
     1.0000   1.0000   1.0000   1.0000   0.0000   0.0000   0.0000   0.0000

          k = 0.0000 0.2165 0.0000 (  4078 PWs)   bands (ev):

   -20.5253  -8.6631  -7.6775  -6.2952   2.5825   3.6488   4.1613   6.0552

     occupation numbers 
     1.0000   1.0000   1.0000   1.0000   0.0000   0.0000   0.0000   0.0000

          k = 0.0000 0.2526 0.0000 (  4076 PWs)   bands (ev):

   -20.2276  -8.4609  -8.3081  -6.6364   2.9908   4.0560   4.5801   6.2179

     occupation numbers 
     1.0000   1.0000   1.0000   1.0000   0.0000   0.0000   0.0000   0.0000

          k = 0.0000 0.2887 0.0000 (  4058 PWs)   bands (ev):

   -19.8852  -9.2740  -7.9030  -6.9649   3.4613   4.5076   5.0629   5.4470

     occupation numbers 
     1.0000   1.0000   1.0000   1.0000   0.0000   0.0000   0.0000   0.0000

          k = 0.0000 0.3248 0.0000 (  4060 PWs)   bands (ev):

   -19.4990 -10.1014  -7.4521  -7.2714   3.9931   4.4760   5.1484   5.6072

     occupation numbers 
     1.0000   1.0000   1.0000   1.0000   0.0000   0.0000   0.0000   0.0000

          k = 0.0000 0.3608 0.0000 (  4068 PWs)   bands (ev):

   -19.0703 -10.9311  -7.5484  -6.9593   3.6335   4.5849   5.7051   6.1129

     occupation numbers 
     1.0000   1.0000   1.0000   1.0000   0.0000   0.0000   0.0000   0.0000

          k = 0.0000 0.3969 0.0000 (  4070 PWs)   bands (ev):

   -18.5996 -11.7525  -7.7902  -6.4325   2.7612   5.2312   6.0617   6.3575

     occupation numbers 
     1.0000   1.0000   1.0000   1.0000   0.0000   0.0000   0.0000   0.0000

          k = 0.0000 0.4330 0.0000 (  4080 PWs)   bands (ev):

   -18.0889 -12.5584  -7.9928  -5.8837   1.9116   5.8326   6.0895   7.0733

     occupation numbers 
     1.0000   1.0000   1.0000   1.0000   0.0000   0.0000   0.0000   0.0000

          k = 0.0000 0.4691 0.0000 (  4074 PWs)   bands (ev):

   -17.5413 -13.3397  -8.1530  -5.3339   1.1205   5.8627   6.7614   7.8473

     occupation numbers 
     1.0000   1.0000   1.0000   1.0000   0.0000   0.0000   0.0000   0.0000

          k = 0.0000 0.5052 0.0000 (  4060 PWs)   bands (ev):

   -16.9636 -14.0868  -8.2686  -4.8258   0.4359   5.8176   7.5840   8.6741

     occupation numbers 
     1.0000   1.0000   1.0000   1.0000   0.0000   0.0000   0.0000   0.0000

          k = 0.0000 0.5413 0.0000 (  4066 PWs)   bands (ev):

   -16.3823 -14.7708  -8.3390  -4.4391  -0.0598   5.7869   8.4664   9.5426

     occupation numbers 
     1.0000   1.0000   1.0000   1.0000   0.0000   0.0000   0.0000   0.0000

          k = 0.0000-0.5774 0.0000 (  4104 PWs)   bands (ev):

   -16.0110 -15.1775  -8.3630  -4.2889  -0.2480   5.7760   9.3586   9.4430

     occupation numbers 
     1.0000   1.0000   1.0000   1.0000   0.0000   0.0000   0.0000   0.0000

          k = 0.0312 0.0541 0.0000 (  4059 PWs)   bands (ev):

   -21.2856  -9.5799  -5.1834  -5.0627   1.5446   2.6026   3.0970   5.0230

     occupation numbers 
     1.0000   1.0000   1.0000   1.0000   0.0000   0.0000   0.0000   0.0000

          k = 0.0312 0.0902 0.0000 (  4065 PWs)   bands (ev):

   -21.1931  -9.4674  -5.5319  -5.2605   1.6704   2.7299   3.2259   5.1493

     occupation numbers 
     1.0000   1.0000   1.0000   1.0000   0.0000   0.0000   0.0000   0.0000

          k = 0.0312 0.1263 0.0000 (  4071 PWs)   bands (ev):

   -21.0546  -9.2997  -6.0226  -5.5297   1.8593   2.9207   3.4195   5.3387

     occupation numbers 
     1.0000   1.0000   1.0000   1.0000   0.0000   0.0000   0.0000   0.0000

          k = 0.0312 0.1624 0.0000 (  4065 PWs)   bands (ev):

   -20.8701  -9.0770  -6.6277  -5.8454   2.1109   3.1746   3.6775   5.5903

     occupation numbers 
     1.0000   1.0000   1.0000   1.0000   0.0000   0.0000   0.0000   0.0000

          k = 0.0312 0.1985 0.0000 (  4072 PWs)   bands (ev):

   -20.6401  -8.8006  -7.3205  -6.1864   2.4254   3.4912   4.0000   5.9026

     occupation numbers 
     1.0000   1.0000   1.0000   1.0000   0.0000   0.0000   0.0000   0.0000

          k = 0.0312 0.2345 0.0000 (  4066 PWs)   bands (ev):

   -20.3648  -8.4713  -8.0740  -6.5340   2.8026   3.8691   4.3869   6.2564

     occupation numbers 
     1.0000   1.0000   1.0000   1.0000   0.0000   0.0000   0.0000   0.0000

          k = 0.0312 0.2706 0.0000 (  4068 PWs)   bands (ev):

   -20.0448  -8.8683  -8.0911  -6.8738   3.2421   4.3031   4.8379   5.8184

     occupation numbers 
     1.0000   1.0000   1.0000   1.0000   0.0000   0.0000   0.0000   0.0000

          k = 0.0312 0.3067 0.0000 (  4058 PWs)   bands (ev):

   -19.6805  -9.6853  -7.6628  -7.1946   3.7434   4.6971   5.0867   5.3525

     occupation numbers 
     1.0000   1.0000   1.0000   1.0000   0.0000   0.0000   0.0000   0.0000

          k = 0.0312 0.3428 0.0000 (  4071 PWs)   bands (ev):

   -19.2732 -10.5115  -7.4885  -7.1905   4.0507   4.3056   5.4272   5.9243

     occupation numbers 
     1.0000   1.0000   1.0000   1.0000   0.0000   0.0000   0.0000   0.0000

          k = 0.0312 0.3789 0.0000 (  4068 PWs)   bands (ev):

   -18.8234 -11.3351  -7.7495  -6.6795   3.1835   4.9266   6.0433   6.1987

     occupation numbers 
     1.0000   1.0000   1.0000   1.0000   0.0000   0.0000   0.0000   0.0000

          k = 0.0312 0.4150 0.0000 (  4055 PWs)   bands (ev):

   -18.3324 -12.1476  -7.9724  -6.1393   2.3227   5.5939   6.1313   6.7283

     occupation numbers 
     1.0000   1.0000   1.0000   1.0000   0.0000   0.0000   0.0000   0.0000

          k = 0.0312 0.4511 0.0000 (  4078 PWs)   bands (ev):

   -17.8033 -12.9408  -8.1550  -5.5869   1.4996   5.9787   6.4116   7.4726

     occupation numbers 
     1.0000   1.0000   1.0000   1.0000   0.0000   0.0000   0.0000   0.0000

          k = 0.0312 0.4871 0.0000 (  4072 PWs)   bands (ev):

   -17.2396 -13.7055  -8.2933  -5.0510   0.7557   5.9423   7.1873   8.2717

     occupation numbers 
     1.0000   1.0000   1.0000   1.0000   0.0000   0.0000   0.0000   0.0000

          k = 0.0312 0.5232 0.0000 (  4071 PWs)   bands (ev):

   -16.6541 -14.4266  -8.3866  -4.5905   0.1534   5.9033   8.0407   9.1181

     occupation numbers 
     1.0000   1.0000   1.0000   1.0000   0.0000   0.0000   0.0000   0.0000

          k = 0.0312 0.5593 0.0000 (  4081 PWs)   bands (ev):

   -16.1159 -15.0336  -8.4334  -4.3064  -0.2034   5.8824   8.9477   9.9054

     occupation numbers 
     1.0000   1.0000   1.0000   1.0000   0.0000   0.0000   0.0000   0.0000

          k = 0.0625 0.1083 0.0000 (  4077 PWs)   bands (ev):

   -21.0777  -9.3276  -5.9213  -5.5115   1.8277   2.8889   3.3875   5.3071

     occupation numbers 
     1.0000   1.0000   1.0000   1.0000   0.0000   0.0000   0.0000   0.0000

          k = 0.0625 0.1443 0.0000 (  4073 PWs)   bands (ev):

   -20.9162  -9.1325  -6.4315  -5.8286   2.0481   3.1112   3.6130   5.5275

     occupation numbers 
     1.0000   1.0000   1.0000   1.0000   0.0000   0.0000   0.0000   0.0000

          k = 0.0625 0.1804 0.0000 (  4069 PWs)   bands (ev):

   -20.7091  -8.8832  -7.0450  -6.1804   2.3313   3.3965   3.9034   5.8107

     occupation numbers 
     1.0000   1.0000   1.0000   1.0000   0.0000   0.0000   0.0000   0.0000

          k = 0.0625 0.2165 0.0000 (  4065 PWs)   bands (ev):

   -20.4565  -8.5804  -7.7391  -6.5440   2.6773   3.7440   4.2582   6.1501

     occupation numbers 
     1.0000   1.0000   1.0000   1.0000   0.0000   0.0000   0.0000   0.0000

          k = 0.0625 0.2526 0.0000 (  4058 PWs)   bands (ev):

   -20.1590  -8.4907  -8.2259  -6.9019   3.0858   4.1515   4.6774   6.1166

     occupation numbers 
     1.0000   1.0000   1.0000   1.0000   0.0000   0.0000   0.0000   0.0000

          k = 0.0625 0.2887 0.0000 (  4064 PWs)   bands (ev):

   -19.8170  -9.2799  -7.8220  -7.2428   3.5564   4.6019   5.1606   5.3368

     occupation numbers 
     1.0000   1.0000   1.0000   1.0000   0.0000   0.0000   0.0000   0.0000

          k = 0.0625 0.3248 0.0000 (  4075 PWs)   bands (ev):

   -19.4316 -10.0895  -7.5577  -7.3716   4.0885   4.4155   5.2116   5.7070

     occupation numbers 
     1.0000   1.0000   1.0000   1.0000   0.0000   0.0000   0.0000   0.0000

          k = 0.0625 0.3608 0.0000 (  4061 PWs)   bands (ev):

   -19.0030 -10.9049  -7.8400  -6.8794   3.5730   4.6812   5.7866   6.3072

     occupation numbers 
     1.0000   1.0000   1.0000   1.0000   0.0000   0.0000   0.0000   0.0000

          k = 0.0625 0.3969 0.0000 (  4052 PWs)   bands (ev):

   -18.5330 -11.7164  -8.0853  -6.3525   2.7151   5.3316   6.4392   6.4554

     occupation numbers 
     1.0000   1.0000   1.0000   1.0000   0.0000   0.0000   0.0000   0.0000

          k = 0.0625 0.4330 0.0000 (  4062 PWs)   bands (ev):

   -18.0233 -12.5146  -8.2902  -5.8038   1.8786   6.0177   6.4020   7.1520

     occupation numbers 
     1.0000   1.0000   1.0000   1.0000   0.0000   0.0000   0.0000   0.0000

          k = 0.0625 0.4691 0.0000 (  4066 PWs)   bands (ev):

   -17.4769 -13.2903  -8.4520  -5.2539   1.0963   6.2622   6.8595   7.9200

     occupation numbers 
     1.0000   1.0000   1.0000   1.0000   0.0000   0.0000   0.0000   0.0000

          k = 0.0625 0.5052 0.0000 (  4067 PWs)   bands (ev):

   -16.9008 -14.0325  -8.5684  -4.7453   0.4168   6.2229   7.6745   8.7356

     occupation numbers 
     1.0000   1.0000   1.0000   1.0000   0.0000   0.0000   0.0000   0.0000

          k = 0.0625 0.5413 0.0000 (  4077 PWs)   bands (ev):

   -16.3217 -14.7129  -8.6390  -4.3560  -0.0771   6.1927   8.5535   9.5810

     occupation numbers 
     1.0000   1.0000   1.0000   1.0000   0.0000   0.0000   0.0000   0.0000

          k = 0.0625 0.5774 0.0000 (  4068 PWs)   bands (ev):

   -15.9524 -15.1157  -8.6625  -4.2025  -0.2649   6.1823   9.4383   9.5284

     occupation numbers 
     1.0000   1.0000   1.0000   1.0000   0.0000   0.0000   0.0000   0.0000

          k = 0.0938 0.1624 0.0000 (  4069 PWs)   bands (ev):

   -20.7321  -8.9107  -6.9315  -6.2004   2.2999   3.3649   3.8712   5.7791

     occupation numbers 
     1.0000   1.0000   1.0000   1.0000   0.0000   0.0000   0.0000   0.0000

          k = 0.0938 0.1985 0.0000 (  4063 PWs)   bands (ev):

   -20.5024  -8.6352  -7.5204  -6.6013   2.6147   3.6813   4.1940   6.0919

     occupation numbers 
     1.0000   1.0000   1.0000   1.0000   0.0000   0.0000   0.0000   0.0000

          k = 0.0938 0.2345 0.0000 (  4065 PWs)   bands (ev):

   -20.2276  -8.3072  -8.1887  -6.9996   2.9920   4.0594   4.5810   6.3133

     occupation numbers 
     1.0000   1.0000   1.0000   1.0000   0.0000   0.0000   0.0000   0.0000

          k = 0.0938 0.2706 0.0000 (  4057 PWs)   bands (ev):

   -19.9082  -8.9175  -7.9284  -7.3761   3.4317   4.4943   5.0324   5.5707

     occupation numbers 
     1.0000   1.0000   1.0000   1.0000   0.0000   0.0000   0.0000   0.0000

          k = 0.0938 0.3067 0.0000 (  4069 PWs)   bands (ev):

   -19.5450  -9.6871  -7.7230  -7.5017   3.9333   4.6999   5.0628   5.5480

     occupation numbers 
     1.0000   1.0000   1.0000   1.0000   0.0000   0.0000   0.0000   0.0000

          k = 0.0938 0.3428 0.0000 (  4059 PWs)   bands (ev):

   -19.1384 -10.4779  -8.0342  -7.0304   3.9074   4.4962   5.5879   6.1267

     occupation numbers 
     1.0000   1.0000   1.0000   1.0000   0.0000   0.0000   0.0000   0.0000

          k = 0.0938 0.3789 0.0000 (  4057 PWs)   bands (ev):

   -18.6897 -11.2763  -8.3062  -6.5208   3.0682   5.1192   6.2082   6.7561

     occupation numbers 
     1.0000   1.0000   1.0000   1.0000   0.0000   0.0000   0.0000   0.0000

          k = 0.0938 0.4150 0.0000 (  4050 PWs)   bands (ev):

   -18.2005 -12.0696  -8.5365  -5.9815   2.2362   5.7994   6.8874   6.8883

     occupation numbers 
     1.0000   1.0000   1.0000   1.0000   0.0000   0.0000   0.0000   0.0000

          k = 0.0938 0.4511 0.0000 (  4054 PWs)   bands (ev):

   -17.6732 -12.8486  -8.7234  -5.4285   1.4365   6.5118   6.8438   7.6225

     occupation numbers 
     1.0000   1.0000   1.0000   1.0000   0.0000   0.0000   0.0000   0.0000

          k = 0.0938 0.4871 0.0000 (  4071 PWs)   bands (ev):

   -17.1123 -13.6025  -8.8650  -4.8911   0.7078   6.7176   7.3752   8.4025

     occupation numbers 
     1.0000   1.0000   1.0000   1.0000   0.0000   0.0000   0.0000   0.0000

          k = 0.0938 0.5232 0.0000 (  4066 PWs)   bands (ev):

   -16.5304 -14.3148  -8.9597  -4.4260   0.1125   6.6848   8.2184   9.2111

     occupation numbers 
     1.0000   1.0000   1.0000   1.0000   0.0000   0.0000   0.0000   0.0000

          k = 0.0938 0.5593 0.0000 (  4068 PWs)   bands (ev):

   -15.9971 -14.9141  -9.0072  -4.1362  -0.2438   6.6645   9.1169  10.0619

     occupation numbers 
     1.0000   1.0000   1.0000   1.0000   0.0000   0.0000   0.0000   0.0000

          k = 0.1250 0.2165 0.0000 (  4063 PWs)   bands (ev):

   -20.2505  -8.3343  -8.0602  -7.0610   2.9608   4.0286   4.5489   6.3980

     occupation numbers 
     1.0000   1.0000   1.0000   1.0000   0.0000   0.0000   0.0000   0.0000

          k = 0.1250 0.2526 0.0000 (  4065 PWs)   bands (ev):

   -19.9539  -8.6730  -7.9820  -7.5104   3.3694   4.4368   4.9684   5.7007

     occupation numbers 
     1.0000   1.0000   1.0000   1.0000   0.0000   0.0000   0.0000   0.0000

          k = 0.1250 0.2887 0.0000 (  4078 PWs)   bands (ev):

   -19.6132  -9.3548  -7.9209  -7.5804   3.8401   4.8568   5.0028   5.4522

     occupation numbers 
     1.0000   1.0000   1.0000   1.0000   0.0000   0.0000   0.0000   0.0000

          k = 0.1250 0.3248 0.0000 (  4068 PWs)   bands (ev):

   -19.2289 -10.0869  -8.2826  -7.1321   4.1587   4.3724   5.4484   6.0000

     occupation numbers 
     1.0000   1.0000   1.0000   1.0000   0.0000   0.0000   0.0000   0.0000

          k = 0.1250 0.3608 0.0000 (  4057 PWs)   bands (ev):

   -18.8020 -10.8485  -8.5950  -6.6422   3.3555   4.9656   6.0373   6.6111

     occupation numbers 
     1.0000   1.0000   1.0000   1.0000   0.0000   0.0000   0.0000   0.0000

          k = 0.1250 0.3969 0.0000 (  4048 PWs)   bands (ev):

   -18.3341 -11.6213  -8.8595  -6.1173   2.5461   5.6184   6.6837   7.2773

     occupation numbers 
     1.0000   1.0000   1.0000   1.0000   0.0000   0.0000   0.0000   0.0000

          k = 0.1250 0.4330 0.0000 (  4069 PWs)   bands (ev):

   -17.8272 -12.3918  -9.0766  -5.5697   1.7512   6.3281   7.3819   7.4675

     occupation numbers 
     1.0000   1.0000   1.0000   1.0000   0.0000   0.0000   0.0000   0.0000

          k = 0.1250 0.4691 0.0000 (  4052 PWs)   bands (ev):

   -17.2842 -13.1466  -9.2457  -5.0183   1.0004   7.0757   7.4246   8.1226

     occupation numbers 
     1.0000   1.0000   1.0000   1.0000   0.0000   0.0000   0.0000   0.0000

          k = 0.1250 0.5052 0.0000 (  4064 PWs)   bands (ev):

   -16.7127 -13.8736  -9.3672  -4.5039   0.3383   7.3219   7.9496   8.8852

     occupation numbers 
     1.0000   1.0000   1.0000   1.0000   0.0000   0.0000   0.0000   0.0000

          k = 0.1250 0.5413 0.0000 (  4070 PWs)   bands (ev):

   -16.1398 -14.5414  -9.4402  -4.1054  -0.1513   7.2976   8.8135   9.6085

     occupation numbers 
     1.0000   1.0000   1.0000   1.0000   0.0000   0.0000   0.0000   0.0000

          k = 0.1250 0.5774 0.0000 (  4072 PWs)   bands (ev):

   -15.7774 -14.9357  -9.4645  -3.9468  -0.3402   7.2877   9.6729   9.7809

     occupation numbers 
     1.0000   1.0000   1.0000   1.0000   0.0000   0.0000   0.0000   0.0000

          k = 0.1562 0.2706 0.0000 (  4068 PWs)   bands (ev):

   -19.6359  -9.2093  -8.0226  -7.6063   3.8090   4.8753   5.0196   5.4201

     occupation numbers 
     1.0000   1.0000   1.0000   1.0000   0.0000   0.0000   0.0000   0.0000

          k = 0.1562 0.3067 0.0000 (  4068 PWs)   bands (ev):

   -19.2742  -9.8141  -8.4879  -7.1831   4.2980   4.3104   5.3741   5.9361

     occupation numbers 
     1.0000   1.0000   1.0000   1.0000   0.0000   0.0000   0.0000   0.0000

          k = 0.1562 0.3428 0.0000 (  4064 PWs)   bands (ev):

   -18.8698 -10.4853  -8.8828  -6.7157   3.5471   4.8730   5.9309   6.5163

     occupation numbers 
     1.0000   1.0000   1.0000   1.0000   0.0000   0.0000   0.0000   0.0000

          k = 0.1562 0.3789 0.0000 (  4057 PWs)   bands (ev):

   -18.4236 -11.2021  -9.2077  -6.2090   2.7793   5.4958   6.5425   7.1598

     occupation numbers 
     1.0000   1.0000   1.0000   1.0000   0.0000   0.0000   0.0000   0.0000

          k = 0.1562 0.4150 0.0000 (  4055 PWs)   bands (ev):

   -17.9376 -11.9404  -9.4702  -5.6721   2.0108   6.1774   7.2031   7.8620

     occupation numbers 
     1.0000   1.0000   1.0000   1.0000   0.0000   0.0000   0.0000   0.0000

          k = 0.1562 0.4511 0.0000 (  4055 PWs)   bands (ev):

   -17.4144 -12.6807  -9.6764  -5.1193   1.2629   6.9151   7.9011   8.1641

     occupation numbers 
     1.0000   1.0000   1.0000   1.0000   0.0000   0.0000   0.0000   0.0000

          k = 0.1562 0.4871 0.0000 (  4062 PWs)   bands (ev):

   -16.8589 -13.4071  -9.8295  -4.5775   0.5686   7.6963   8.1205   8.6104

     occupation numbers 
     1.0000   1.0000   1.0000   1.0000   0.0000   0.0000   0.0000   0.0000

          k = 0.1562 0.5232 0.0000 (  4060 PWs)   bands (ev):

   -16.2841 -14.0991  -9.9307  -4.1012  -0.0121   8.0404   8.5767   9.2653

     occupation numbers 
     1.0000   1.0000   1.0000   1.0000   0.0000   0.0000   0.0000   0.0000

          k = 0.1562 0.5593 0.0000 (  4066 PWs)   bands (ev):

   -15.7605 -14.6826  -9.9816  -3.7981  -0.3687   8.0264   9.4497   9.7044

     occupation numbers 
     1.0000   1.0000   1.0000   1.0000   0.0000   0.0000   0.0000   0.0000

          k = 0.1875 0.3248 0.0000 (  4066 PWs)   bands (ev):

   -18.8923 -10.3216  -9.0230  -6.7401   3.6150   4.8420   5.8945   6.4844

     occupation numbers 
     1.0000   1.0000   1.0000   1.0000   0.0000   0.0000   0.0000   0.0000

          k = 0.1875 0.3608 0.0000 (  4051 PWs)   bands (ev):

   -18.4683 -10.9003  -9.4773  -6.2552   2.9063   5.4342   6.4698   7.0965

     occupation numbers 
     1.0000   1.0000   1.0000   1.0000   0.0000   0.0000   0.0000   0.0000

          k = 0.1875 0.3969 0.0000 (  4055 PWs)   bands (ev):

   -18.0042 -11.5476  -9.8355  -5.7347   2.1840   6.0855   7.0916   7.7721

     occupation numbers 
     1.0000   1.0000   1.0000   1.0000   0.0000   0.0000   0.0000   0.0000

          k = 0.1875 0.4330 0.0000 (  4052 PWs)   bands (ev):

   -17.5018 -12.2360 -10.1077  -5.1891   1.4643   6.7942   7.7449   8.5084

     occupation numbers 
     1.0000   1.0000   1.0000   1.0000   0.0000   0.0000   0.0000   0.0000

          k = 0.1875 0.4691 0.0000 (  4044 PWs)   bands (ev):

   -16.9649 -12.9373 -10.3084  -4.6361   0.7690   7.5568   8.3962   8.9394

     occupation numbers 
     1.0000   1.0000   1.0000   1.0000   0.0000   0.0000   0.0000   0.0000

          k = 0.1875 0.5052 0.0000 (  4054 PWs)   bands (ev):

   -16.4012 -13.6285 -10.4473  -4.1117   0.1394   8.3633   8.8993   8.9698

     occupation numbers 
     1.0000   1.0000   1.0000   1.0000   0.0000   0.0000   0.0000   0.0000

          k = 0.1875 0.5413 0.0000 (  4054 PWs)   bands (ev):

   -15.8387 -14.2703 -10.5292  -3.6937  -0.3432   8.8347   9.2477   9.3442

     occupation numbers 
     1.0000   1.0000   1.0000   1.0000   0.0000   0.0000   0.0000   0.0000

          k = 0.1875 0.5774 0.0000 (  4064 PWs)   bands (ev):

   -15.4860 -14.6503 -10.5564  -3.5225  -0.5366   8.8319   9.4631  10.0458

     occupation numbers 
     1.0000   1.0000   1.0000   1.0000   0.0000   0.0000   0.0000   0.0000

          k = 0.2188 0.3789 0.0000 (  4048 PWs)   bands (ev):

   -18.0263 -11.3646 -10.0099  -5.7558   2.2453   6.0547   7.0535   7.7405

     occupation numbers 
     1.0000   1.0000   1.0000   1.0000   0.0000   0.0000   0.0000   0.0000

          k = 0.2188 0.4150 0.0000 (  4056 PWs)   bands (ev):

   -17.5458 -11.9068 -10.4330  -5.2248   1.5738   6.7329   7.6633   8.4476

     occupation numbers 
     1.0000   1.0000   1.0000   1.0000   0.0000   0.0000   0.0000   0.0000

          k = 0.2188 0.4511 0.0000 (  4042 PWs)   bands (ev):

   -17.0291 -12.5191 -10.7377  -4.6737   0.9068   7.4659   8.2575   9.2155

     occupation numbers 
     1.0000   1.0000   1.0000   1.0000   0.0000   0.0000   0.0000   0.0000

          k = 0.2188 0.4871 0.0000 (  4042 PWs)   bands (ev):

   -16.4820 -13.1672 -10.9443  -4.1255   0.2674   8.2485   8.7480   9.7491

     occupation numbers 
     1.0000   1.0000   1.0000   1.0000   0.0000   0.0000   0.0000   0.0000

          k = 0.2188 0.5232 0.0000 (  4047 PWs)   bands (ev):

   -15.9185 -13.8107 -11.0733  -3.6287  -0.2913   9.0343   9.0681   9.7136

     occupation numbers 
     1.0000   1.0000   1.0000   1.0000   0.0000   0.0000   0.0000   0.0000

          k = 0.2188 0.5593 0.0000 (  4047 PWs)   bands (ev):

   -15.4077 -14.3643 -11.1357  -3.2964  -0.6554   9.1372   9.6548   9.9431

     occupation numbers 
     1.0000   1.0000   1.0000   1.0000   0.0000   0.0000   0.0000   0.0000

          k = 0.2500 0.4330 0.0000 (  4056 PWs)   bands (ev):

   -17.0508 -12.3186 -10.9427  -4.6873   0.9555   7.4353   8.2090   9.1855

     occupation numbers 
     1.0000   1.0000   1.0000   1.0000   0.0000   0.0000   0.0000   0.0000

          k = 0.2500 0.4691 0.0000 (  4035 PWs)   bands (ev):

   -16.5230 -12.8163 -11.3152  -4.1342   0.3406   8.1881   8.6277   9.9830

     occupation numbers 
     1.0000   1.0000   1.0000   1.0000   0.0000   0.0000   0.0000   0.0000

          k = 0.2500 0.5052 0.0000 (  4040 PWs)   bands (ev):

   -15.9716 -13.3832 -11.5505  -3.5948  -0.2438   8.8268   8.9814  10.5263

     occupation numbers 
     1.0000   1.0000   1.0000   1.0000   0.0000   0.0000   0.0000   0.0000

          k = 0.2500 0.5413 0.0000 (  4042 PWs)   bands (ev):

   -15.4235 -13.9570 -11.6776  -3.1367  -0.7291   8.8705   9.7930  10.4895

     occupation numbers 
     1.0000   1.0000   1.0000   1.0000   0.0000   0.0000   0.0000   0.0000

          k = 0.2500 0.5774 0.0000 (  4052 PWs)   bands (ev):

   -15.0784 -14.3133 -11.7180  -2.9325  -0.9425   8.8718  10.4170  10.5155

     occupation numbers 
     1.0000   1.0000   1.0000   1.0000   0.0000   0.0000   0.0000   0.0000

          k = 0.2812 0.4871 0.0000 (  4038 PWs)   bands (ev):

   -15.9897 -13.1730 -11.7777  -3.5844  -0.2252   8.7537   8.9514  10.8034

     occupation numbers 
     1.0000   1.0000   1.0000   1.0000   0.0000   0.0000   0.0000   0.0000

          k = 0.2812 0.5232 0.0000 (  4045 PWs)   bands (ev):

   -15.4438 -13.6174 -12.0743  -3.0544  -0.7634   8.7243   9.7362  11.1343

     occupation numbers 
     1.0000   1.0000   1.0000   1.0000   0.0000   0.0000   0.0000   0.0000

          k = 0.2812 0.5593 0.0000 (  4050 PWs)   bands (ev):

   -14.9451 -14.0793 -12.2096  -2.6459  -1.1754   8.6784  10.4897  11.0276

     occupation numbers 
     1.0000   1.0000   1.0000   1.0000   0.0000   0.0000   0.0000   0.0000

          k = 0.3125 0.5413 0.0000 (  4030 PWs)   bands (ev):

   -14.9216 -13.9197 -12.4337  -2.5265  -1.2746   8.6091  10.4655  11.2672

     occupation numbers 
     1.0000   1.0000   1.0000   1.0002   0.0000   0.0000   0.0000   0.0000

          k = 0.3125 0.5774 0.0000 (  4042 PWs)   bands (ev):

   -14.5556 -14.2074 -12.5596  -2.1811  -1.6147   8.5636  10.9825  11.1070

     occupation numbers 
     1.0000   1.0000   1.0000   0.9998   0.0000   0.0000   0.0000   0.0000

     the Fermi energy is    -2.0558 ev

!    total energy              =     -24.11573922 Ry
     estimated scf accuracy    <       0.00000007 Ry
     smearing contrib. (-TS)   =       0.00000961 Ry
     internal energy E=F+TS    =     -24.11574882 Ry

     The total energy is F=E-TS. E is the sum of the following terms:
     one-electron contribution =    -154.91580962 Ry
     hartree contribution      =      78.91405203 Ry
     xc contribution           =      -8.55672732 Ry
     ewald contribution        =      60.44273608 Ry

     convergence has been achieved in   5 iterations

     Forces acting on atoms (cartesian axes, Ry/au):

     atom    1 type  1   force =     0.00000000    0.00000000    0.00000000
     atom    2 type  1   force =     0.00000000   -0.00000000    0.00000000
     The non-local contrib.  to forces
     atom    1 type  1   force =     0.00000000   -0.00000000    0.00000000
     atom    2 type  1   force =     0.00000000    0.00000000    0.00000000
     The ionic contribution  to forces
     atom    1 type  1   force =    -0.00000001    0.00000000   -0.00000000
     atom    2 type  1   force =     0.00000001   -0.00000000   -0.00000000
     The local contribution  to forces
     atom    1 type  1   force =    -0.00000000   -0.00000000    0.00000000
     atom    2 type  1   force =     0.00000001   -0.00000000    0.00000000
     The core correction contribution to forces
     atom    1 type  1   force =     0.00000000   -0.00000000    0.00000000
     atom    2 type  1   force =    -0.00000000    0.00000000    0.00000000
     The Hubbard contrib.    to forces
     atom    1 type  1   force =     0.00000000    0.00000000    0.00000000
     atom    2 type  1   force =     0.00000000    0.00000000    0.00000000
     The SCF correction term to forces
     atom    1 type  1   force =     0.00000000   -0.00000000   -0.00000000
     atom    2 type  1   force =    -0.00000000    0.00000000    0.00000000

     Total force =     0.000000     Total SCF correction =     0.000000


     Computing stress (Cartesian axis) and pressure

          total   stress  (Ry/bohr**3)                   (kbar)     P=      -14.27
  -0.00010291   0.00000000   0.00000000          -15.14        0.00        0.00
   0.00000000  -0.00010291   0.00000000            0.00      -15.14        0.00
  -0.00000000   0.00000000  -0.00008512           -0.00        0.00      -12.52

     kinetic stress (kbar)   3110.89      0.00     -0.00
                                0.00   3110.89      0.00
                               -0.00      0.00   3410.43

     local   stress (kbar) -47077.77      0.00      0.00
                                0.00 -47077.77      0.00
                                0.00      0.00  48049.31

     nonloc. stress (kbar)   -377.67      0.00      0.00
                                0.00   -377.67     -0.00
                                0.00     -0.00   -316.41

     hartree stress (kbar)  22205.94      0.00     -0.00
                                0.00  22205.94     -0.00
                               -0.00     -0.00 -21975.60

     exc-cor stress (kbar)   -240.44      0.00      0.00
                                0.00   -240.44      0.00
                                0.00      0.00   -240.44

     corecor stress (kbar)   -469.59      0.00      0.00
                                0.00   -469.59     -0.00
                                0.00     -0.00   -457.44

     ewald   stress (kbar)  22833.51     -0.00     -0.00
                               -0.00  22833.51     -0.00
                               -0.00     -0.00 -28482.36

     hubbard stress (kbar)      0.00      0.00      0.00
                                0.00      0.00      0.00
                                0.00      0.00      0.00

     DFT-D   stress (kbar)      0.00      0.00      0.00
                                0.00      0.00      0.00
                                0.00      0.00      0.00

     XDM     stress (kbar)      0.00      0.00      0.00
                                0.00      0.00      0.00
                                0.00      0.00      0.00

     dft-nl  stress (kbar)      0.00      0.00      0.00
                                0.00      0.00      0.00
                                0.00      0.00      0.00

     TS-vdW  stress (kbar)      0.00      0.00      0.00
                                0.00      0.00      0.00
                                0.00      0.00      0.00



     Writing output data file ./tmp/graphene.save/

     init_run     :     10.71s CPU      5.26s WALL (       1 calls)
     electrons    :    214.98s CPU    102.11s WALL (       1 calls)
     forces       :      1.93s CPU      0.71s WALL (       1 calls)
     stress       :     10.44s CPU      4.98s WALL (       1 calls)

     Called by init_run:
     wfcinit      :     10.60s CPU      5.14s WALL (       1 calls)
     wfcinit:atom :      0.38s CPU      0.15s WALL (     102 calls)
     wfcinit:wfcr :      8.92s CPU      4.42s WALL (     102 calls)
     potinit      :      0.01s CPU      0.02s WALL (       1 calls)
     hinit0       :      0.05s CPU      0.05s WALL (       1 calls)

     Called by electrons:
     c_bands      :    208.20s CPU     96.07s WALL (       5 calls)
     sum_band     :      6.69s CPU      5.95s WALL (       5 calls)
     v_of_rho     :      0.04s CPU      0.04s WALL (       6 calls)
     v_h          :      0.01s CPU      0.01s WALL (       6 calls)
     v_xc         :      0.05s CPU      0.05s WALL (       8 calls)
     mix_rho      :      0.02s CPU      0.03s WALL (       5 calls)

     Called by c_bands:
     init_us_2    :      4.35s CPU      2.03s WALL (    1326 calls)
     cegterg      :    199.45s CPU     92.35s WALL (     510 calls)

     Called by sum_band:
     sum_band:wei :      0.02s CPU      0.01s WALL (       5 calls)
     sum_band:loo :      6.63s CPU      5.91s WALL (       5 calls)
     sum_band:buf :      0.14s CPU      0.13s WALL (     510 calls)
     sum_band:ini :      0.69s CPU      0.62s WALL (     510 calls)

     Called by *egterg:
     cdiaghg      :      3.07s CPU      1.02s WALL (    3392 calls)
     cegterg:over :      9.61s CPU      4.05s WALL (    2882 calls)
     cegterg:upda :      7.08s CPU      3.63s WALL (    2882 calls)
     cegterg:last :      6.85s CPU      2.89s WALL (    1465 calls)
     h_psi        :    176.17s CPU     83.19s WALL (    3494 calls)
     g_psi        :      2.10s CPU      0.66s WALL (    2882 calls)

     Called by h_psi:
     h_psi:calbec :     16.99s CPU     11.22s WALL (    3494 calls)
     vloc_psi     :    150.62s CPU     68.01s WALL (    3494 calls)
     add_vuspsi   :      7.11s CPU      3.37s WALL (    3494 calls)

     General routines
     calbec       :     18.31s CPU     11.82s WALL (    4004 calls)
     fft          :      0.07s CPU      0.05s WALL (      25 calls)
     ffts         :      0.01s CPU      0.01s WALL (       5 calls)
     fftw         :    127.35s CPU     59.10s WALL (   33360 calls)

     Parallel routines

     PWSCF        :   3m58.30s CPU   1m53.32s WALL


   This run was terminated on:  12:39:16  14Feb2024            

=------------------------------------------------------------------------------=
   JOB DONE.
=------------------------------------------------------------------------------=
