
     Program PWSCF v.6.7MaX starts on 14Feb2024 at 14:50:53 

     This program is part of the open-source Quantum ESPRESSO suite
     for quantum simulation of materials; please cite
         "P. Giannozzi et al., J. Phys.:Condens. Matter 21 395502 (2009);
         "P. Giannozzi et al., J. Phys.:Condens. Matter 29 465901 (2017);
          URL http://www.quantum-espresso.org", 
     in publications or presentations arising from this work. More details at
     http://www.quantum-espresso.org/quote

     Parallel version (MPI), running on     1 processors

     MPI processes distributed on     1 nodes
     Waiting for input...
     Reading input from standard input

     Current dimensions of program PWSCF are:
     Max number of different atomic species (ntypx) = 10
     Max number of k-points (npk) =  40000
     Max angular momentum in pseudopotentials (lmaxx) =  3
     Message from routine read_pp_mesh:
     mesh size missing, using the one in header
     Message from routine read_pp_mesh:
     mesh size missing, using the one in header

     Subspace diagonalization in iterative solution of the eigenvalue problem:
     a serial algorithm will be used


     G-vector sticks info
     --------------------
     sticks:   dense  smooth     PW     G-vecs:    dense   smooth      PW
     Sum         121     121     37                 6307     6307    1307



     bravais-lattice index     =            4
     lattice parameter (alat)  =       4.6350  a.u.
     unit-cell volume          =     517.4056 (a.u.)^3
     number of atoms/cell      =            2
     number of atomic types    =            2
     number of electrons       =         8.00
     number of Kohn-Sham states=            8
     kinetic-energy cutoff     =      20.0000  Ry
     charge density cutoff     =      80.0000  Ry
     scf convergence threshold =      1.0E-06
     mixing beta               =       0.7000
     number of iterations used =            8  plain     mixing
     Exchange-correlation= PBE
                           (   1   4   3   4   0   0   0)

     celldm(1)=   4.635000  celldm(2)=   0.000000  celldm(3)=   6.000000
     celldm(4)=   0.000000  celldm(5)=   0.000000  celldm(6)=   0.000000

     crystal axes: (cart. coord. in units of alat)
               a(1) = (   1.000000   0.000000   0.000000 )  
               a(2) = (  -0.500000   0.866025   0.000000 )  
               a(3) = (   0.000000   0.000000   6.000000 )  

     reciprocal axes: (cart. coord. in units 2 pi/alat)
               b(1) = (  1.000000  0.577350 -0.000000 )  
               b(2) = (  0.000000  1.154701  0.000000 )  
               b(3) = (  0.000000 -0.000000  0.166667 )  


     PseudoPot. # 1 for N  read from file:
     ../../../../Pseudo/PBE/N.upf
     MD5 check sum: d34365f73bb0e2ee98afc20ec3e87676
     Pseudo is Norm-conserving + core correction, Zval =  5.0
     Generated using ONCVPSP code by D. R. Hamann
     Using radial grid of 1058 points,  4 beta functions with: 
                l(1) =   0
                l(2) =   0
                l(3) =   1
                l(4) =   1

     PseudoPot. # 2 for B  read from file:
     ../../../../Pseudo/PBE/B.upf
     MD5 check sum: 72f82fc31bc892420d0cab7e25c88ab8
     Pseudo is Norm-conserving + core correction, Zval =  3.0
     Generated using ONCVPSP code by D. R. Hamann
     Using radial grid of 1534 points,  4 beta functions with: 
                l(1) =   0
                l(2) =   0
                l(3) =   1
                l(4) =   1

     atomic species   valence    mass     pseudopotential
        N              5.00    14.00670     N ( 1.00)
        B              3.00    10.80100     B ( 1.00)

     12 Sym. Ops. (no inversion) found


                                    s                        frac. trans.

      isym =  1     identity                                     

 cryst.   s( 1) = (     1          0          0      )
                  (     0          1          0      )
                  (     0          0          1      )

 cart.    s( 1) = (  1.0000000  0.0000000  0.0000000 )
                  (  0.0000000  1.0000000  0.0000000 )
                  (  0.0000000  0.0000000  1.0000000 )


      isym =  2     180 deg rotation - cart. axis [0,1,0]        

 cryst.   s( 2) = (    -1          0          0      )
                  (     1          1          0      )
                  (     0          0         -1      )

 cart.    s( 2) = ( -1.0000000  0.0000000  0.0000000 )
                  (  0.0000000  1.0000000  0.0000000 )
                  (  0.0000000  0.0000000 -1.0000000 )


      isym =  3     120 deg rotation - cryst. axis [0,0,1]       

 cryst.   s( 3) = (     0          1          0      )
                  (    -1         -1          0      )
                  (     0          0          1      )

 cart.    s( 3) = ( -0.5000000 -0.8660254  0.0000000 )
                  (  0.8660254 -0.5000000  0.0000000 )
                  (  0.0000000  0.0000000  1.0000000 )


      isym =  4     120 deg rotation - cryst. axis [0,0,-1]      

 cryst.   s( 4) = (    -1         -1          0      )
                  (     1          0          0      )
                  (     0          0          1      )

 cart.    s( 4) = ( -0.5000000  0.8660254  0.0000000 )
                  ( -0.8660254 -0.5000000  0.0000000 )
                  (  0.0000000  0.0000000  1.0000000 )


      isym =  5     180 deg rotation - cryst. axis [1,-1,0]      

 cryst.   s( 5) = (     0         -1          0      )
                  (    -1          0          0      )
                  (     0          0         -1      )

 cart.    s( 5) = (  0.5000000 -0.8660254  0.0000000 )
                  ( -0.8660254 -0.5000000  0.0000000 )
                  (  0.0000000  0.0000000 -1.0000000 )


      isym =  6     180 deg rotation - cryst. axis [2,1,0]       

 cryst.   s( 6) = (     1          1          0      )
                  (     0         -1          0      )
                  (     0          0         -1      )

 cart.    s( 6) = (  0.5000000  0.8660254  0.0000000 )
                  (  0.8660254 -0.5000000  0.0000000 )
                  (  0.0000000  0.0000000 -1.0000000 )


      isym =  7     inv. 180 deg rotation - cart. axis [0,0,1]   

 cryst.   s( 7) = (     1          0          0      )
                  (     0          1          0      )
                  (     0          0         -1      )

 cart.    s( 7) = (  1.0000000  0.0000000  0.0000000 )
                  (  0.0000000  1.0000000  0.0000000 )
                  (  0.0000000  0.0000000 -1.0000000 )


      isym =  8     inv. 180 deg rotation - cart. axis [1,0,0]   

 cryst.   s( 8) = (    -1          0          0      )
                  (     1          1          0      )
                  (     0          0          1      )

 cart.    s( 8) = ( -1.0000000  0.0000000  0.0000000 )
                  (  0.0000000  1.0000000  0.0000000 )
                  (  0.0000000  0.0000000  1.0000000 )


      isym =  9     inv.  60 deg rotation - cryst. axis [0,0,1]  

 cryst.   s( 9) = (    -1         -1          0      )
                  (     1          0          0      )
                  (     0          0         -1      )

 cart.    s( 9) = ( -0.5000000  0.8660254  0.0000000 )
                  ( -0.8660254 -0.5000000  0.0000000 )
                  (  0.0000000  0.0000000 -1.0000000 )


      isym = 10     inv.  60 deg rotation - cryst. axis [0,0,-1] 

 cryst.   s(10) = (     0          1          0      )
                  (    -1         -1          0      )
                  (     0          0         -1      )

 cart.    s(10) = ( -0.5000000 -0.8660254  0.0000000 )
                  (  0.8660254 -0.5000000  0.0000000 )
                  (  0.0000000  0.0000000 -1.0000000 )


      isym = 11     inv. 180 deg rotation - cryst. axis [0,1,0]  

 cryst.   s(11) = (     1          1          0      )
                  (     0         -1          0      )
                  (     0          0          1      )

 cart.    s(11) = (  0.5000000  0.8660254  0.0000000 )
                  (  0.8660254 -0.5000000  0.0000000 )
                  (  0.0000000  0.0000000  1.0000000 )


      isym = 12     inv. 180 deg rotation - cryst. axis [1,1,0]  

 cryst.   s(12) = (     0         -1          0      )
                  (    -1          0          0      )
                  (     0          0          1      )

 cart.    s(12) = (  0.5000000 -0.8660254  0.0000000 )
                  ( -0.8660254 -0.5000000  0.0000000 )
                  (  0.0000000  0.0000000  1.0000000 )


     point group D_3h (-62m)
     there are  6 classes
     the character table:

       E     2C3   3C2   s_h   2S3   3s_v 
A'_1   1.00  1.00  1.00  1.00  1.00  1.00
A'_2   1.00  1.00 -1.00  1.00  1.00 -1.00
E'     2.00 -1.00  0.00  2.00 -1.00  0.00
A''1   1.00  1.00  1.00 -1.00 -1.00 -1.00
A''2   1.00  1.00 -1.00 -1.00 -1.00  1.00
E''    2.00 -1.00  0.00 -2.00  1.00  0.00

     the symmetry operations in each class and the name of the first element:

     E        1
          identity                                               
     2C3      3    4
          120 deg rotation - cryst. axis [0,0,1]                 
     3C2      2    6    5
          180 deg rotation - cart. axis [0,1,0]                  
     s_h      7
          inv. 180 deg rotation - cart. axis [0,0,1]             
     2S3      9   10
          inv.  60 deg rotation - cryst. axis [0,0,1]            
     3s_v     8   11   12
          inv. 180 deg rotation - cart. axis [1,0,0]             

   Cartesian axes

     site n.     atom                  positions (alat units)
         1           B   tau(   1) = (   0.0000000   0.0000000   0.0000000  )
         2           N   tau(   2) = (  -0.0000000   0.5773503   0.0000000  )

   Crystallographic axes

     site n.     atom                  positions (cryst. coord.)
         1           B   tau(   1) = (  0.0000000  0.0000000  0.0000000  )
         2           N   tau(   2) = (  0.3333333  0.6666667  0.0000000  )

     number of k points=    61  Marzari-Vanderbilt smearing, width (Ry)=  0.0100
                       cart. coord. in units 2pi/alat
        k(    1) = (   0.0000000   0.0000000   0.0000000), wk =   0.0034722
        k(    2) = (   0.0000000   0.0481125   0.0000000), wk =   0.0208333
        k(    3) = (   0.0000000   0.0962250   0.0000000), wk =   0.0208333
        k(    4) = (   0.0000000   0.1443376   0.0000000), wk =   0.0208333
        k(    5) = (   0.0000000   0.1924501   0.0000000), wk =   0.0208333
        k(    6) = (   0.0000000   0.2405626   0.0000000), wk =   0.0208333
        k(    7) = (   0.0000000   0.2886751   0.0000000), wk =   0.0208333
        k(    8) = (   0.0000000   0.3367877   0.0000000), wk =   0.0208333
        k(    9) = (   0.0000000   0.3849002   0.0000000), wk =   0.0208333
        k(   10) = (   0.0000000   0.4330127   0.0000000), wk =   0.0208333
        k(   11) = (   0.0000000   0.4811252   0.0000000), wk =   0.0208333
        k(   12) = (   0.0000000   0.5292377   0.0000000), wk =   0.0208333
        k(   13) = (   0.0000000  -0.5773503   0.0000000), wk =   0.0104167
        k(   14) = (   0.0416667   0.0721688   0.0000000), wk =   0.0208333
        k(   15) = (   0.0416667   0.1202813   0.0000000), wk =   0.0416667
        k(   16) = (   0.0416667   0.1683938   0.0000000), wk =   0.0416667
        k(   17) = (   0.0416667   0.2165064   0.0000000), wk =   0.0416667
        k(   18) = (   0.0416667   0.2646189   0.0000000), wk =   0.0416667
        k(   19) = (   0.0416667   0.3127314   0.0000000), wk =   0.0416667
        k(   20) = (   0.0416667   0.3608439   0.0000000), wk =   0.0416667
        k(   21) = (   0.0416667   0.4089564   0.0000000), wk =   0.0416667
        k(   22) = (   0.0416667   0.4570690   0.0000000), wk =   0.0416667
        k(   23) = (   0.0416667   0.5051815   0.0000000), wk =   0.0416667
        k(   24) = (   0.0416667   0.5532940   0.0000000), wk =   0.0416667
        k(   25) = (   0.0833333   0.1443376   0.0000000), wk =   0.0208333
        k(   26) = (   0.0833333   0.1924501   0.0000000), wk =   0.0416667
        k(   27) = (   0.0833333   0.2405626   0.0000000), wk =   0.0416667
        k(   28) = (   0.0833333   0.2886751   0.0000000), wk =   0.0416667
        k(   29) = (   0.0833333   0.3367877   0.0000000), wk =   0.0416667
        k(   30) = (   0.0833333   0.3849002   0.0000000), wk =   0.0416667
        k(   31) = (   0.0833333   0.4330127   0.0000000), wk =   0.0416667
        k(   32) = (   0.0833333   0.4811252   0.0000000), wk =   0.0416667
        k(   33) = (   0.0833333   0.5292377   0.0000000), wk =   0.0416667
        k(   34) = (   0.0833333   0.5773503   0.0000000), wk =   0.0208333
        k(   35) = (   0.1250000   0.2165064   0.0000000), wk =   0.0208333
        k(   36) = (   0.1250000   0.2646189   0.0000000), wk =   0.0416667
        k(   37) = (   0.1250000   0.3127314   0.0000000), wk =   0.0416667
        k(   38) = (   0.1250000   0.3608439   0.0000000), wk =   0.0416667
        k(   39) = (   0.1250000   0.4089564   0.0000000), wk =   0.0416667
        k(   40) = (   0.1250000   0.4570690   0.0000000), wk =   0.0416667
        k(   41) = (   0.1250000   0.5051815   0.0000000), wk =   0.0416667
        k(   42) = (   0.1250000   0.5532940   0.0000000), wk =   0.0416667
        k(   43) = (   0.1666667   0.2886751   0.0000000), wk =   0.0208333
        k(   44) = (   0.1666667   0.3367877   0.0000000), wk =   0.0416667
        k(   45) = (   0.1666667   0.3849002   0.0000000), wk =   0.0416667
        k(   46) = (   0.1666667   0.4330127   0.0000000), wk =   0.0416667
        k(   47) = (   0.1666667   0.4811252   0.0000000), wk =   0.0416667
        k(   48) = (   0.1666667   0.5292377   0.0000000), wk =   0.0416667
        k(   49) = (   0.1666667   0.5773503   0.0000000), wk =   0.0208333
        k(   50) = (   0.2083333   0.3608439   0.0000000), wk =   0.0208333
        k(   51) = (   0.2083333   0.4089564   0.0000000), wk =   0.0416667
        k(   52) = (   0.2083333   0.4570690   0.0000000), wk =   0.0416667
        k(   53) = (   0.2083333   0.5051815   0.0000000), wk =   0.0416667
        k(   54) = (   0.2083333   0.5532940   0.0000000), wk =   0.0416667
        k(   55) = (   0.2500000   0.4330127   0.0000000), wk =   0.0208333
        k(   56) = (   0.2500000   0.4811252   0.0000000), wk =   0.0416667
        k(   57) = (   0.2500000   0.5292377   0.0000000), wk =   0.0416667
        k(   58) = (   0.2500000   0.5773503   0.0000000), wk =   0.0208333
        k(   59) = (   0.2916667   0.5051815   0.0000000), wk =   0.0208333
        k(   60) = (   0.2916667   0.5532940   0.0000000), wk =   0.0416667
        k(   61) = (   0.3333333   0.5773503   0.0000000), wk =   0.0069444

                       cryst. coord.
        k(    1) = (   0.0000000   0.0000000   0.0000000), wk =   0.0034722
        k(    2) = (   0.0000000   0.0416667   0.0000000), wk =   0.0208333
        k(    3) = (   0.0000000   0.0833333   0.0000000), wk =   0.0208333
        k(    4) = (   0.0000000   0.1250000   0.0000000), wk =   0.0208333
        k(    5) = (   0.0000000   0.1666667   0.0000000), wk =   0.0208333
        k(    6) = (   0.0000000   0.2083333   0.0000000), wk =   0.0208333
        k(    7) = (   0.0000000   0.2500000   0.0000000), wk =   0.0208333
        k(    8) = (   0.0000000   0.2916667   0.0000000), wk =   0.0208333
        k(    9) = (   0.0000000   0.3333333   0.0000000), wk =   0.0208333
        k(   10) = (   0.0000000   0.3750000   0.0000000), wk =   0.0208333
        k(   11) = (   0.0000000   0.4166667   0.0000000), wk =   0.0208333
        k(   12) = (   0.0000000   0.4583333   0.0000000), wk =   0.0208333
        k(   13) = (   0.0000000  -0.5000000   0.0000000), wk =   0.0104167
        k(   14) = (   0.0416667   0.0416667   0.0000000), wk =   0.0208333
        k(   15) = (   0.0416667   0.0833333   0.0000000), wk =   0.0416667
        k(   16) = (   0.0416667   0.1250000   0.0000000), wk =   0.0416667
        k(   17) = (   0.0416667   0.1666667   0.0000000), wk =   0.0416667
        k(   18) = (   0.0416667   0.2083333   0.0000000), wk =   0.0416667
        k(   19) = (   0.0416667   0.2500000   0.0000000), wk =   0.0416667
        k(   20) = (   0.0416667   0.2916667   0.0000000), wk =   0.0416667
        k(   21) = (   0.0416667   0.3333333   0.0000000), wk =   0.0416667
        k(   22) = (   0.0416667   0.3750000   0.0000000), wk =   0.0416667
        k(   23) = (   0.0416667   0.4166667   0.0000000), wk =   0.0416667
        k(   24) = (   0.0416667   0.4583333   0.0000000), wk =   0.0416667
        k(   25) = (   0.0833333   0.0833333   0.0000000), wk =   0.0208333
        k(   26) = (   0.0833333   0.1250000   0.0000000), wk =   0.0416667
        k(   27) = (   0.0833333   0.1666667   0.0000000), wk =   0.0416667
        k(   28) = (   0.0833333   0.2083333   0.0000000), wk =   0.0416667
        k(   29) = (   0.0833333   0.2500000   0.0000000), wk =   0.0416667
        k(   30) = (   0.0833333   0.2916667   0.0000000), wk =   0.0416667
        k(   31) = (   0.0833333   0.3333333   0.0000000), wk =   0.0416667
        k(   32) = (   0.0833333   0.3750000   0.0000000), wk =   0.0416667
        k(   33) = (   0.0833333   0.4166667   0.0000000), wk =   0.0416667
        k(   34) = (   0.0833333   0.4583333   0.0000000), wk =   0.0208333
        k(   35) = (   0.1250000   0.1250000   0.0000000), wk =   0.0208333
        k(   36) = (   0.1250000   0.1666667   0.0000000), wk =   0.0416667
        k(   37) = (   0.1250000   0.2083333   0.0000000), wk =   0.0416667
        k(   38) = (   0.1250000   0.2500000   0.0000000), wk =   0.0416667
        k(   39) = (   0.1250000   0.2916667   0.0000000), wk =   0.0416667
        k(   40) = (   0.1250000   0.3333333   0.0000000), wk =   0.0416667
        k(   41) = (   0.1250000   0.3750000   0.0000000), wk =   0.0416667
        k(   42) = (   0.1250000   0.4166667   0.0000000), wk =   0.0416667
        k(   43) = (   0.1666667   0.1666667   0.0000000), wk =   0.0208333
        k(   44) = (   0.1666667   0.2083333   0.0000000), wk =   0.0416667
        k(   45) = (   0.1666667   0.2500000   0.0000000), wk =   0.0416667
        k(   46) = (   0.1666667   0.2916667   0.0000000), wk =   0.0416667
        k(   47) = (   0.1666667   0.3333333   0.0000000), wk =   0.0416667
        k(   48) = (   0.1666667   0.3750000   0.0000000), wk =   0.0416667
        k(   49) = (   0.1666667   0.4166667   0.0000000), wk =   0.0208333
        k(   50) = (   0.2083333   0.2083333   0.0000000), wk =   0.0208333
        k(   51) = (   0.2083333   0.2500000   0.0000000), wk =   0.0416667
        k(   52) = (   0.2083333   0.2916667   0.0000000), wk =   0.0416667
        k(   53) = (   0.2083333   0.3333333   0.0000000), wk =   0.0416667
        k(   54) = (   0.2083333   0.3750000   0.0000000), wk =   0.0416667
        k(   55) = (   0.2500000   0.2500000   0.0000000), wk =   0.0208333
        k(   56) = (   0.2500000   0.2916667   0.0000000), wk =   0.0416667
        k(   57) = (   0.2500000   0.3333333   0.0000000), wk =   0.0416667
        k(   58) = (   0.2500000   0.3750000   0.0000000), wk =   0.0208333
        k(   59) = (   0.2916667   0.2916667   0.0000000), wk =   0.0208333
        k(   60) = (   0.2916667   0.3333333   0.0000000), wk =   0.0416667
        k(   61) = (   0.3333333   0.3333333   0.0000000), wk =   0.0069444

     Dense  grid:     6307 G-vectors     FFT dimensions: (  15,  15,  80)

     Dynamical RAM for                 wfc:       0.10 MB

     Dynamical RAM for     wfc (w. buffer):       5.91 MB

     Dynamical RAM for           str. fact:       0.19 MB

     Dynamical RAM for           local pot:       0.00 MB

     Dynamical RAM for          nlocal pot:       0.19 MB

     Dynamical RAM for                qrad:       0.41 MB

     Dynamical RAM for          rho,v,vnew:       0.70 MB

     Dynamical RAM for               rhoin:       0.23 MB

     Dynamical RAM for            rho*nmix:       1.54 MB

     Dynamical RAM for           G-vectors:       0.41 MB

     Dynamical RAM for          h,s,v(r/c):       0.01 MB

     Dynamical RAM for          <psi|beta>:       0.00 MB

     Dynamical RAM for                 psi:       0.19 MB

     Dynamical RAM for                hpsi:       0.19 MB

     Dynamical RAM for      wfcinit/wfcrot:       0.19 MB

     Estimated static dynamical RAM per process >      10.56 MB

     Estimated max dynamical RAM per process >      10.96 MB

     Check: negative core charge=   -0.000497

     Initial potential from superposition of free atoms

     starting charge    7.99974, renormalised to    8.00000

     negative rho (up, down):  2.216E-02 0.000E+00
     Starting wfcs are    8 randomized atomic wfcs

     total cpu time spent up to now is        0.2 secs

     Self-consistent Calculation

     iteration #  1     ecut=    20.00 Ry     beta= 0.70
     Davidson diagonalization with overlap
     ethr =  1.00E-02,  avg # of iterations =  9.0

     negative rho (up, down):  6.110E-03 0.000E+00

     total cpu time spent up to now is        0.8 secs

     total energy              =     -25.92254057 Ry
     estimated scf accuracy    <       0.15652538 Ry

     iteration #  2     ecut=    20.00 Ry     beta= 0.70
     Davidson diagonalization with overlap
     ethr =  1.96E-03,  avg # of iterations =  3.9

     negative rho (up, down):  7.958E-04 0.000E+00

     total cpu time spent up to now is        1.2 secs

     total energy              =     -25.93218398 Ry
     estimated scf accuracy    <       0.00755543 Ry

     iteration #  3     ecut=    20.00 Ry     beta= 0.70
     Davidson diagonalization with overlap
     ethr =  9.44E-05,  avg # of iterations =  6.1

     negative rho (up, down):  7.379E-05 0.000E+00

     total cpu time spent up to now is        1.6 secs

     total energy              =     -25.93281888 Ry
     estimated scf accuracy    <       0.00096034 Ry

     iteration #  4     ecut=    20.00 Ry     beta= 0.70
     Davidson diagonalization with overlap
     ethr =  1.20E-05,  avg # of iterations =  3.6

     total cpu time spent up to now is        2.0 secs

     total energy              =     -25.93292314 Ry
     estimated scf accuracy    <       0.00002665 Ry

     iteration #  5     ecut=    20.00 Ry     beta= 0.70
     Davidson diagonalization with overlap
     ethr =  3.33E-07,  avg # of iterations =  2.9

     total cpu time spent up to now is        2.3 secs

     total energy              =     -25.93293085 Ry
     estimated scf accuracy    <       0.00000461 Ry

     iteration #  6     ecut=    20.00 Ry     beta= 0.70
     Davidson diagonalization with overlap
     ethr =  5.77E-08,  avg # of iterations =  1.4

     total cpu time spent up to now is        2.6 secs

     End of self-consistent calculation

          k = 0.0000 0.0000 0.0000 (   801 PWs)   bands (ev):

   -22.6618  -9.1254  -4.5278  -4.5278  -0.6568   0.0380   0.4457   2.5923

     occupation numbers 
     1.0000   1.0000   1.0000   1.0000   0.0000   0.0000   0.0000   0.0000

          k = 0.0000 0.0481 0.0000 (   791 PWs)   bands (ev):

   -22.6177  -9.0642  -4.6333  -4.5488  -0.5969   0.0958   0.5064   2.6498

     occupation numbers 
     1.0000   1.0000   1.0000   1.0000   0.0000   0.0000   0.0000   0.0000

          k = 0.0000 0.0962 0.0000 (   795 PWs)   bands (ev):

   -22.5158  -8.9410  -5.1096  -4.7983  -0.4196   0.2657   0.6853   2.8121

     occupation numbers 
     1.0000   1.0000   1.0000   1.0000   0.0000   0.0000   0.0000   0.0000

          k = 0.0000 0.1443 0.0000 (   795 PWs)   bands (ev):

   -22.3346  -8.6989  -5.8659  -5.1058  -0.1273   0.5506   0.9794   3.0866

     occupation numbers 
     1.0000   1.0000   1.0000   1.0000   0.0000   0.0000   0.0000   0.0000

          k = 0.0000 0.1925 0.0000 (   784 PWs)   bands (ev):

   -22.0896  -8.3378  -6.6536  -5.4571   0.2777   0.9500   1.3843   3.4700

     occupation numbers 
     1.0000   1.0000   1.0000   1.0000   0.0000   0.0000   0.0000   0.0000

          k = 0.0000 0.2406 0.0000 (   780 PWs)   bands (ev):

   -21.7901  -7.9143  -7.6077  -5.8534   0.7957   1.4594   1.8994   3.9450

     occupation numbers 
     1.0000   1.0000   1.0000   1.0000   0.0000   0.0000   0.0000   0.0000

          k = 0.0000 0.2887 0.0000 (   780 PWs)   bands (ev):

   -21.4327  -8.6159  -7.4098  -6.3413   1.4270   2.0765   2.5254   4.4811

     occupation numbers 
     1.0000   1.0000   1.0000   1.0000   0.0000   0.0000   0.0000   0.0000

          k = 0.0000 0.3368 0.0000 (   770 PWs)   bands (ev):

   -21.0228  -9.5828  -6.8200  -6.6652   2.1704   2.7881   3.2594   4.8962

     occupation numbers 
     1.0000   1.0000   1.0000   1.0000   0.0000   0.0000   0.0000   0.0000

          k = 0.0000 0.3849 0.0000 (   776 PWs)   bands (ev):

   -20.6150 -10.5812  -7.0086  -6.1833   3.0236   3.4824   4.0964   4.6093

     occupation numbers 
     1.0000   1.0000   1.0000   1.0000   0.0000   0.0000   0.0000   0.0000

          k = 0.0000 0.4330 0.0000 (   784 PWs)   bands (ev):

   -20.1919 -11.4880  -7.3281  -5.5269   3.2440   3.9837   4.8674   5.0259

     occupation numbers 
     1.0000   1.0000   1.0000   1.0000   0.0000   0.0000   0.0000   0.0000

          k = 0.0000 0.4811 0.0000 (   792 PWs)   bands (ev):

   -19.8211 -12.2230  -7.5505  -4.9103   2.4100   5.0306   5.8627   5.9881

     occupation numbers 
     1.0000   1.0000   1.0000   1.0000   0.0000   0.0000   0.0000   0.0000

          k = 0.0000 0.5292 0.0000 (   790 PWs)   bands (ev):

   -19.5402 -12.7104  -7.6439  -4.4272   1.7614   6.0442   6.7747   7.0310

     occupation numbers 
     1.0000   1.0000   1.0000   1.0000   0.0000   0.0000   0.0000   0.0000

          k = 0.0000-0.5774 0.0000 (   782 PWs)   bands (ev):

   -19.4315 -12.8581  -7.6794  -4.1923   1.5304   6.4418   7.6516   7.8829

     occupation numbers 
     1.0000   1.0000   1.0000   1.0000   0.0000   0.0000   0.0000   0.0000

          k = 0.0417 0.0722 0.0000 (   799 PWs)   bands (ev):

   -22.5525  -8.9832  -5.0014  -4.7586  -0.4785   0.2089   0.6258   2.7577

     occupation numbers 
     1.0000   1.0000   1.0000   1.0000   0.0000   0.0000   0.0000   0.0000

          k = 0.0417 0.1203 0.0000 (   797 PWs)   bands (ev):

   -22.4086  -8.7969  -5.5644  -5.0332  -0.2440   0.4366   0.8622   2.9767

     occupation numbers 
     1.0000   1.0000   1.0000   1.0000   0.0000   0.0000   0.0000   0.0000

          k = 0.0417 0.1684 0.0000 (   792 PWs)   bands (ev):

   -22.1914  -8.4982  -6.3135  -5.3952   0.1051   0.7786   1.2124   3.3052

     occupation numbers 
     1.0000   1.0000   1.0000   1.0000   0.0000   0.0000   0.0000   0.0000

          k = 0.0417 0.2165 0.0000 (   788 PWs)   bands (ev):

   -21.9242  -8.1027  -7.1876  -5.8087   0.5665   1.2334   1.6725   3.7364

     occupation numbers 
     1.0000   1.0000   1.0000   1.0000   0.0000   0.0000   0.0000   0.0000

          k = 0.0417 0.2646 0.0000 (   779 PWs)   bands (ev):

   -21.5892  -8.1021  -7.6408  -6.2072   1.1415   1.7969   2.2438   4.2461

     occupation numbers 
     1.0000   1.0000   1.0000   1.0000   0.0000   0.0000   0.0000   0.0000

          k = 0.0417 0.3127 0.0000 (   774 PWs)   bands (ev):

   -21.2128  -9.1062  -7.0880  -6.5840   1.8291   2.4643   2.9247   4.7661

     occupation numbers 
     1.0000   1.0000   1.0000   1.0000   0.0000   0.0000   0.0000   0.0000

          k = 0.0417 0.3608 0.0000 (   775 PWs)   bands (ev):

   -20.8046 -10.0943  -6.9576  -6.4730   2.6280   3.1983   3.7119   4.8456

     occupation numbers 
     1.0000   1.0000   1.0000   1.0000   0.0000   0.0000   0.0000   0.0000

          k = 0.0417 0.4090 0.0000 (   775 PWs)   bands (ev):

   -20.3747 -11.0433  -7.2495  -5.8157   3.5368   3.5696   4.5841   4.6009

     occupation numbers 
     1.0000   1.0000   1.0000   1.0000   0.0000   0.0000   0.0000   0.0000

          k = 0.0417 0.4571 0.0000 (   780 PWs)   bands (ev):

   -19.9705 -11.8589  -7.5010  -5.1652   2.8475   4.5472   5.3743   5.5689

     occupation numbers 
     1.0000   1.0000   1.0000   1.0000   0.0000   0.0000   0.0000   0.0000

          k = 0.0417 0.5052 0.0000 (   786 PWs)   bands (ev):

   -19.6366 -12.4742  -7.6791  -4.6043   2.0634   5.6262   6.4712   6.5085

     occupation numbers 
     1.0000   1.0000   1.0000   1.0000   0.0000   0.0000   0.0000   0.0000

          k = 0.0417 0.5533 0.0000 (   782 PWs)   bands (ev):

   -19.4388 -12.7970  -7.7574  -4.2265   1.6024   6.4845   7.2659   7.7002

     occupation numbers 
     1.0000   1.0000   1.0000   1.0000   0.0000   0.0000   0.0000   0.0000

          k = 0.0833 0.1443 0.0000 (   793 PWs)   bands (ev):

   -22.2273  -8.5569  -6.1424  -5.3957   0.0478   0.7211   1.1555   3.2495

     occupation numbers 
     1.0000   1.0000   1.0000   1.0000   0.0000   0.0000   0.0000   0.0000

          k = 0.0833 0.1925 0.0000 (   793 PWs)   bands (ev):

   -21.9956  -8.2234  -6.8902  -5.8143   0.4523   1.1186   1.5596   3.6263

     occupation numbers 
     1.0000   1.0000   1.0000   1.0000   0.0000   0.0000   0.0000   0.0000

          k = 0.0833 0.2406 0.0000 (   790 PWs)   bands (ev):

   -21.7084  -7.7882  -7.7362  -6.2940   0.9702   1.6280   2.0751   4.0978

     occupation numbers 
     1.0000   1.0000   1.0000   1.0000   0.0000   0.0000   0.0000   0.0000

          k = 0.0833 0.2887 0.0000 (   780 PWs)   bands (ev):

   -21.3523  -8.6633  -7.2742  -6.7078   1.6021   2.2444   2.7028   4.6229

     occupation numbers 
     1.0000   1.0000   1.0000   1.0000   0.0000   0.0000   0.0000   0.0000

          k = 0.0833 0.3368 0.0000 (   776 PWs)   bands (ev):

   -20.9512  -9.6399  -7.0854  -6.6823   2.3468   2.9515   3.4402   4.9684

     occupation numbers 
     1.0000   1.0000   1.0000   1.0000   0.0000   0.0000   0.0000   0.0000

          k = 0.0833 0.3849 0.0000 (   783 PWs)   bands (ev):

   -20.5381 -10.5882  -7.4537  -6.0632   3.2024   3.5979   4.2829   4.6216

     occupation numbers 
     1.0000   1.0000   1.0000   1.0000   0.0000   0.0000   0.0000   0.0000

          k = 0.0833 0.4330 0.0000 (   775 PWs)   bands (ev):

   -20.0983 -11.4253  -7.6976  -5.3861   3.2550   4.1679   5.0171   5.2276

     occupation numbers 
     1.0000   1.0000   1.0000   1.0000   0.0000   0.0000   0.0000   0.0000

          k = 0.0833 0.4811 0.0000 (   781 PWs)   bands (ev):

   -19.7308 -12.1410  -7.9336  -4.7798   2.4412   5.2319   6.0228   6.2418

     occupation numbers 
     1.0000   1.0000   1.0000   1.0000   0.0000   0.0000   0.0000   0.0000

          k = 0.0833 0.5292 0.0000 (   785 PWs)   bands (ev):

   -19.4642 -12.6248  -8.0716  -4.3035   1.7897   6.3437   7.1663   7.1888

     occupation numbers 
     1.0000   1.0000   1.0000   1.0000   0.0000   0.0000   0.0000   0.0000

          k = 0.0833 0.5774 0.0000 (   784 PWs)   bands (ev):

   -19.3621 -12.7842  -8.1221  -4.0974   1.5512   6.9911   7.8202   8.1258

     occupation numbers 
     1.0000   1.0000   1.0000   1.0000   0.0000   0.0000   0.0000   0.0000

          k = 0.1250 0.2165 0.0000 (   785 PWs)   bands (ev):

   -21.7394  -7.8330  -7.5112  -6.3337   0.9136   1.5723   2.0197   4.0499

     occupation numbers 
     1.0000   1.0000   1.0000   1.0000   0.0000   0.0000   0.0000   0.0000

          k = 0.1250 0.2646 0.0000 (   783 PWs)   bands (ev):

   -21.4158  -8.3714  -7.3618  -6.8583   1.4896   2.1341   2.5937   4.5418

     occupation numbers 
     1.0000   1.0000   1.0000   1.0000   0.0000   0.0000   0.0000   0.0000

          k = 0.1250 0.3127 0.0000 (   786 PWs)   bands (ev):

   -21.0514  -9.2626  -7.3484  -6.8370   2.1783   2.7920   3.2772   4.9579

     occupation numbers 
     1.0000   1.0000   1.0000   1.0000   0.0000   0.0000   0.0000   0.0000

          k = 0.1250 0.3608 0.0000 (   780 PWs)   bands (ev):

   -20.6405 -10.1570  -7.7154  -6.2202   2.9803   3.4927   4.0720   4.8264

     occupation numbers 
     1.0000   1.0000   1.0000   1.0000   0.0000   0.0000   0.0000   0.0000

          k = 0.1250 0.4090 0.0000 (   779 PWs)   bands (ev):

   -20.2169 -10.9978  -8.0260  -5.5827   3.5846   3.8939   4.8072   4.9736

     occupation numbers 
     1.0000   1.0000   1.0000   1.0000   0.0000   0.0000   0.0000   0.0000

          k = 0.1250 0.4571 0.0000 (   779 PWs)   bands (ev):

   -19.8162 -11.7478  -8.2926  -4.9336   2.8226   4.9158   5.6901   5.9748

     occupation numbers 
     1.0000   1.0000   1.0000   1.0000   0.0000   0.0000   0.0000   0.0000

          k = 0.1250 0.5052 0.0000 (   776 PWs)   bands (ev):

   -19.4885 -12.3134  -8.4594  -4.3644   2.1030   6.0366   6.7880   7.0467

     occupation numbers 
     1.0000   1.0000   1.0000   1.0000   0.0000   0.0000   0.0000   0.0000

          k = 0.1250 0.5533 0.0000 (   772 PWs)   bands (ev):

   -19.2898 -12.6241  -8.5343  -3.9944   1.6619   7.1953   7.9552   8.0002

     occupation numbers 
     1.0000   1.0000   1.0000   1.0000   0.0000   0.0000   0.0000   0.0000

          k = 0.1667 0.2887 0.0000 (   781 PWs)   bands (ev):

   -21.0819  -9.1067  -7.4060  -6.8633   2.1222   2.7409   3.2231   4.9577

     occupation numbers 
     1.0000   1.0000   1.0000   1.0000   0.0000   0.0000   0.0000   0.0000

          k = 0.1667 0.3368 0.0000 (   780 PWs)   bands (ev):

   -20.6975  -9.8567  -7.9528  -6.3013   2.8688   3.4139   3.9655   4.9492

     occupation numbers 
     1.0000   1.0000   1.0000   1.0000   0.0000   0.0000   0.0000   0.0000

          k = 0.1667 0.3849 0.0000 (   783 PWs)   bands (ev):

   -20.2965 -10.6564  -8.3852  -5.6918   3.7281   3.7736   4.7469   4.8174

     occupation numbers 
     1.0000   1.0000   1.0000   1.0000   0.0000   0.0000   0.0000   0.0000

          k = 0.1667 0.4330 0.0000 (   781 PWs)   bands (ev):

   -19.8825 -11.3503  -8.7059  -5.0608   3.1532   4.6987   5.4725   5.7769

     occupation numbers 
     1.0000   1.0000   1.0000   1.0000   0.0000   0.0000   0.0000   0.0000

          k = 0.1667 0.4811 0.0000 (   778 PWs)   bands (ev):

   -19.5201 -11.9615  -8.9536  -4.4381   2.4095   5.7783   6.4980   6.8377

     occupation numbers 
     1.0000   1.0000   1.0000   1.0000   0.0000   0.0000   0.0000   0.0000

          k = 0.1667 0.5292 0.0000 (   776 PWs)   bands (ev):

   -19.2642 -12.3746  -9.0904  -3.9713   1.8556   6.9562   7.6428   7.9687

     occupation numbers 
     1.0000   1.0000   1.0000   1.0000   0.0000   0.0000   0.0000   0.0000

          k = 0.1667 0.5774 0.0000 (   780 PWs)   bands (ev):

   -19.1730 -12.5356  -9.1422  -3.8095   1.6277   8.0643   8.3285   8.6866

     occupation numbers 
     1.0000   1.0000   1.0000   1.0000   0.0000   0.0000   0.0000   0.0000

          k = 0.2083 0.3608 0.0000 (   775 PWs)   bands (ev):

   -20.3043 -10.4803  -8.5090  -5.7117   3.6734   3.8424   4.7620   4.7663

     occupation numbers 
     1.0000   1.0000   1.0000   1.0000   0.0000   0.0000   0.0000   0.0000

          k = 0.2083 0.4090 0.0000 (   787 PWs)   bands (ev):

   -19.9231 -11.1143  -9.0251  -5.1255   3.3436   4.5893   5.3672   5.6747

     occupation numbers 
     1.0000   1.0000   1.0000   1.0000   0.0000   0.0000   0.0000   0.0000

          k = 0.2083 0.4571 0.0000 (   783 PWs)   bands (ev):

   -19.5546 -11.6402  -9.3686  -4.5105   2.6554   5.6166   6.3209   6.6912

     occupation numbers 
     1.0000   1.0000   1.0000   1.0000   0.0000   0.0000   0.0000   0.0000

          k = 0.2083 0.5052 0.0000 (   778 PWs)   bands (ev):

   -19.2459 -12.0742  -9.5964  -3.9675   2.0510   6.7528   7.3924   7.8096

     occupation numbers 
     1.0000   1.0000   1.0000   1.0000   0.0000   0.0000   0.0000   0.0000

          k = 0.2083 0.5533 0.0000 (   780 PWs)   bands (ev):

   -19.0795 -12.3237  -9.7326  -3.6464   1.6862   7.9828   8.4589   8.9741

     occupation numbers 
     1.0000   1.0000   1.0000   1.0000   0.0000   0.0000   0.0000   0.0000

          k = 0.2500 0.4330 0.0000 (   781 PWs)   bands (ev):

   -19.5576 -11.4953  -9.5651  -4.5106   2.7697   5.5632   6.2616   6.6422

     occupation numbers 
     1.0000   1.0000   1.0000   1.0000   0.0000   0.0000   0.0000   0.0000

          k = 0.2500 0.4811 0.0000 (   777 PWs)   bands (ev):

   -19.2377 -11.8360  -9.9478  -3.9532   2.1989   6.6465   7.2609   7.7146

     occupation numbers 
     1.0000   1.0000   1.0000   1.0000   0.0000   0.0000   0.0000   0.0000

          k = 0.2500 0.5292 0.0000 (   774 PWs)   bands (ev):

   -19.0136 -12.0586 -10.1939  -3.5342   1.7733   7.8338   8.2202   8.8822

     occupation numbers 
     1.0000   1.0000   1.0000   1.0000   0.0000   0.0000   0.0000   0.0000

          k = 0.2500 0.5774 0.0000 (   776 PWs)   bands (ev):

   -18.9386 -12.1530 -10.3016  -3.3576   1.6056   8.6300   9.0397   9.1829

     occupation numbers 
     1.0000   1.0000   1.0000   1.0000   0.0000   0.0000   0.0000   0.0000

          k = 0.2917 0.5052 0.0000 (   781 PWs)   bands (ev):

   -19.0058 -11.9562 -10.4101  -3.5244   1.7914   7.7806   8.1270   8.8350

     occupation numbers 
     1.0000   1.0000   1.0000   1.0000   0.0000   0.0000   0.0000   0.0000

          k = 0.2917 0.5533 0.0000 (   770 PWs)   bands (ev):

   -18.8591 -11.9627 -10.6460  -3.2195   1.5779   8.4586   9.0103  10.0141

     occupation numbers 
     1.0000   1.0000   1.0000   1.0000   0.0000   0.0000   0.0000   0.0000

          k = 0.3333 0.5774 0.0000 (   771 PWs)   bands (ev):

   -18.8083 -11.8890 -10.8465  -3.1390   1.5069   8.4177  10.0430  10.3296

     occupation numbers 
     1.0000   1.0000   1.0000   1.0000   0.0000   0.0000   0.0000   0.0000

     the Fermi energy is    -1.9741 ev

!    total energy              =     -25.93293098 Ry
     estimated scf accuracy    <       0.00000019 Ry
     smearing contrib. (-TS)   =       0.00000000 Ry
     internal energy E=F+TS    =     -25.93293098 Ry

     The total energy is F=E-TS. E is the sum of the following terms:
     one-electron contribution =    -156.50693526 Ry
     hartree contribution      =      79.82801780 Ry
     xc contribution           =      -8.54412698 Ry
     ewald contribution        =      59.29011347 Ry

     convergence has been achieved in   6 iterations

     Forces acting on atoms (cartesian axes, Ry/au):

     atom    1 type  2   force =     0.00000000    0.00000000    0.00000000
     atom    2 type  1   force =    -0.00000000   -0.00000000    0.00000000
     The non-local contrib.  to forces
     atom    1 type  2   force =     0.00000000   -0.00000000    0.00000000
     atom    2 type  1   force =    -0.00000000    0.00000000    0.00000000
     The ionic contribution  to forces
     atom    1 type  2   force =    -0.00000001    0.00000000   -0.00000000
     atom    2 type  1   force =     0.00000001   -0.00000000   -0.00000000
     The local contribution  to forces
     atom    1 type  2   force =     0.00000000    0.00000000   -0.00000000
     atom    2 type  1   force =     0.00000002   -0.00000001   -0.00000000
     The core correction contribution to forces
     atom    1 type  2   force =     0.00000000   -0.00000000   -0.00000000
     atom    2 type  1   force =    -0.00000000    0.00000000   -0.00000000
     The Hubbard contrib.    to forces
     atom    1 type  2   force =     0.00000000    0.00000000    0.00000000
     atom    2 type  1   force =     0.00000000    0.00000000    0.00000000
     The SCF correction term to forces
     atom    1 type  2   force =     0.00000000   -0.00000000   -0.00000000
     atom    2 type  1   force =     0.00000000   -0.00000000    0.00000000

     Total force =     0.000000     Total SCF correction =     0.000000


     Computing stress (Cartesian axis) and pressure

          total   stress  (Ry/bohr**3)                   (kbar)     P=     -204.05
  -0.00100599   0.00000000   0.00000000         -147.99        0.00        0.00
   0.00000000  -0.00100599   0.00000000            0.00     -147.99        0.00
   0.00000000   0.00000000  -0.00214925            0.00        0.00     -316.17

     kinetic stress (kbar)   3051.87      0.00      0.00
                                0.00   3051.87     -0.00
                                0.00     -0.00   3277.83

     local   stress (kbar) -47131.21      0.00     -0.00
                                0.00 -47131.21     -0.00
                               -0.00     -0.00  47604.52

     nonloc. stress (kbar)   -284.64     -0.00      0.00
                               -0.00   -284.64     -0.00
                                0.00     -0.00   -251.66

     hartree stress (kbar)  22232.71     -0.00     -0.00
                               -0.00  22232.71      0.00
                               -0.00      0.00 -21769.29

     exc-cor stress (kbar)   -333.86     -0.00     -0.00
                               -0.00   -333.86     -0.00
                               -0.00     -0.00   -356.54

     corecor stress (kbar)   -352.51      0.00      0.00
                                0.00   -352.51      0.00
                                0.00      0.00   -338.67

     ewald   stress (kbar)  22669.65     -0.00     -0.00
                               -0.00  22669.65     -0.00
                               -0.00     -0.00 -28482.36

     hubbard stress (kbar)      0.00      0.00      0.00
                                0.00      0.00      0.00
                                0.00      0.00      0.00

     DFT-D   stress (kbar)      0.00      0.00      0.00
                                0.00      0.00      0.00
                                0.00      0.00      0.00

     XDM     stress (kbar)      0.00      0.00      0.00
                                0.00      0.00      0.00
                                0.00      0.00      0.00

     dft-nl  stress (kbar)      0.00      0.00      0.00
                                0.00      0.00      0.00
                                0.00      0.00      0.00

     TS-vdW  stress (kbar)      0.00      0.00      0.00
                                0.00      0.00      0.00
                                0.00      0.00      0.00



     Writing output data file ./tmp/hBN.save/

     init_run     :      0.39s CPU      0.18s WALL (       1 calls)
     electrons    :      6.38s CPU      2.41s WALL (       1 calls)
     forces       :      0.13s CPU      0.05s WALL (       1 calls)
     stress       :      0.47s CPU      0.21s WALL (       1 calls)

     Called by init_run:
     wfcinit      :      0.34s CPU      0.12s WALL (       1 calls)
     wfcinit:atom :      0.02s CPU      0.01s WALL (      61 calls)
     wfcinit:wfcr :      0.25s CPU      0.09s WALL (      61 calls)
     potinit      :      0.01s CPU      0.01s WALL (       1 calls)
     hinit0       :      0.04s CPU      0.04s WALL (       1 calls)

     Called by electrons:
     c_bands      :      5.49s CPU      2.04s WALL (       6 calls)
     sum_band     :      0.75s CPU      0.33s WALL (       6 calls)
     v_of_rho     :      0.11s CPU      0.04s WALL (       7 calls)
     v_h          :      0.00s CPU      0.00s WALL (       7 calls)
     v_xc         :      0.14s CPU      0.05s WALL (       9 calls)
     mix_rho      :      0.01s CPU      0.00s WALL (       6 calls)

     Called by c_bands:
     init_us_2    :      0.35s CPU      0.14s WALL (     915 calls)
     cegterg      :      4.97s CPU      1.84s WALL (     366 calls)

     Called by sum_band:
     sum_band:wei :      0.00s CPU      0.00s WALL (       6 calls)
     sum_band:loo :      0.73s CPU      0.32s WALL (       6 calls)
     sum_band:buf :      0.01s CPU      0.01s WALL (     366 calls)
     sum_band:ini :      0.12s CPU      0.05s WALL (     366 calls)

     Called by *egterg:
     cdiaghg      :      0.37s CPU      0.14s WALL (    2000 calls)
     cegterg:over :      0.19s CPU      0.07s WALL (    1634 calls)
     cegterg:upda :      0.13s CPU      0.05s WALL (    1634 calls)
     cegterg:last :      0.10s CPU      0.04s WALL (     940 calls)
     h_psi        :      4.21s CPU      1.56s WALL (    2061 calls)
     g_psi        :      0.08s CPU      0.03s WALL (    1634 calls)

     Called by h_psi:
     h_psi:calbec :      0.22s CPU      0.09s WALL (    2061 calls)
     vloc_psi     :      3.82s CPU      1.40s WALL (    2061 calls)
     add_vuspsi   :      0.10s CPU      0.04s WALL (    2061 calls)

     General routines
     calbec       :      0.24s CPU      0.10s WALL (    2366 calls)
     fft          :      0.04s CPU      0.02s WALL (      94 calls)
     ffts         :      0.00s CPU      0.00s WALL (       6 calls)
     fftw         :      2.98s CPU      1.12s WALL (   21750 calls)

     Parallel routines

     PWSCF        :      7.45s CPU      2.91s WALL


   This run was terminated on:  14:50:56  14Feb2024            

=------------------------------------------------------------------------------=
   JOB DONE.
=------------------------------------------------------------------------------=
