
     Program PROJWFC v.6.7MaX starts on 14Feb2024 at 17:44:39 

     This program is part of the open-source Quantum ESPRESSO suite
     for quantum simulation of materials; please cite
         "P. Giannozzi et al., J. Phys.:Condens. Matter 21 395502 (2009);
         "P. Giannozzi et al., J. Phys.:Condens. Matter 29 465901 (2017);
          URL http://www.quantum-espresso.org", 
     in publications or presentations arising from this work. More details at
     http://www.quantum-espresso.org/quote

     Parallel version (MPI), running on     1 processors

     MPI processes distributed on     1 nodes

     Reading xml data from directory:

     ./tmp/graphene.save/
     Message from routine read_pp_mesh:
     mesh size missing, using the one in header

     IMPORTANT: XC functional enforced from input :
     Exchange-correlation= PZ
                           (   1   1   0   0   0   0   0)
     Any further DFT definition will be discarded
     Please, verify this is what you really want


     G-vector sticks info
     --------------------
     sticks:   dense  smooth     PW     G-vecs:    dense   smooth      PW
     Sum         361     361    109                32201    32201    5621


     Gaussian broadening (read from file): ngauss,degauss=  -1    0.010000


     Calling projwave .... 

  Problem Sizes 
  natomwfc =            8
  nbnd     =            8
  nkstot   =           19
  npwx     =         4045
  nkb      =           16


     Atomic states used for projection
     (read from pseudopotential files):

     state #   1: atom   1 (C  ), wfc  1 (l=0 m= 1)
     state #   2: atom   1 (C  ), wfc  2 (l=1 m= 1)
     state #   3: atom   1 (C  ), wfc  2 (l=1 m= 2)
     state #   4: atom   1 (C  ), wfc  2 (l=1 m= 3)
     state #   5: atom   2 (C  ), wfc  1 (l=0 m= 1)
     state #   6: atom   2 (C  ), wfc  2 (l=1 m= 1)
     state #   7: atom   2 (C  ), wfc  2 (l=1 m= 2)
     state #   8: atom   2 (C  ), wfc  2 (l=1 m= 3)

 k =   0.0000000000  0.0000000000  0.0000000000
==== e(   1) =   -21.38825 eV ==== 
     psi = 0.492*[#   1]+0.492*[#   5]
    |psi|^2 = 0.984
==== e(   2) =    -9.68436 eV ==== 
     psi = 0.475*[#   2]+0.475*[#   6]
    |psi|^2 = 0.949
==== e(   3) =    -4.85990 eV ==== 
     psi = 0.249*[#   3]+0.249*[#   4]+0.249*[#   7]+0.249*[#   8]
    |psi|^2 = 0.998
==== e(   4) =    -4.85990 eV ==== 
     psi = 0.249*[#   3]+0.249*[#   4]+0.249*[#   7]+0.249*[#   8]
    |psi|^2 = 0.998
==== e(   5) =     1.46708 eV ==== 
     psi = 0.004*[#   1]+0.004*[#   5]
    |psi|^2 = 0.007
==== e(   6) =     2.52863 eV ==== 
     psi = 0.013*[#   2]+0.013*[#   6]
    |psi|^2 = 0.026
==== e(   7) =     3.02545 eV ==== 

    |psi|^2 = 0.001
==== e(   8) =     4.96721 eV ==== 
     psi = 0.007*[#   2]+0.007*[#   6]
    |psi|^2 = 0.014

 k =   0.0000000000  0.0962250449  0.0000000000
==== e(   1) =   -21.22290 eV ==== 
     psi = 0.463*[#   1]+0.463*[#   5]+0.015*[#   3]+0.015*[#   4]+0.015*[#   7]
          +0.015*[#   8]
    |psi|^2 = 0.984
==== e(   2) =    -9.48335 eV ==== 
     psi = 0.477*[#   2]+0.477*[#   6]
    |psi|^2 = 0.954
==== e(   3) =    -5.50726 eV ==== 
     psi = 0.242*[#   3]+0.242*[#   4]+0.242*[#   7]+0.242*[#   8]+0.015*[#   1]
          +0.015*[#   5]
    |psi|^2 = 0.997
==== e(   4) =    -5.21130 eV ==== 
     psi = 0.249*[#   3]+0.249*[#   4]+0.249*[#   7]+0.249*[#   8]
    |psi|^2 = 0.998
==== e(   5) =     1.69214 eV ==== 
     psi = 0.004*[#   3]+0.004*[#   4]+0.004*[#   7]+0.004*[#   8]+0.002*[#   1]
          +0.002*[#   5]
    |psi|^2 = 0.019
==== e(   6) =     2.75643 eV ==== 
     psi = 0.012*[#   2]+0.012*[#   6]
    |psi|^2 = 0.024
==== e(   7) =     3.25617 eV ==== 

    |psi|^2 = 0.002
==== e(   8) =     5.19332 eV ==== 
     psi = 0.006*[#   2]+0.006*[#   6]
    |psi|^2 = 0.013

 k =   0.0000000000  0.1924500897  0.0000000000
==== e(   1) =   -20.72855 eV ==== 
     psi = 0.401*[#   1]+0.401*[#   5]+0.045*[#   3]+0.045*[#   4]+0.045*[#   7]
          +0.045*[#   8]
    |psi|^2 = 0.983
==== e(   2) =    -8.88583 eV ==== 
     psi = 0.483*[#   2]+0.483*[#   6]
    |psi|^2 = 0.965
==== e(   3) =    -7.14322 eV ==== 
     psi = 0.224*[#   3]+0.224*[#   4]+0.224*[#   7]+0.224*[#   8]+0.050*[#   1]
          +0.050*[#   5]
    |psi|^2 = 0.995
==== e(   4) =    -6.03025 eV ==== 
     psi = 0.249*[#   3]+0.249*[#   4]+0.249*[#   7]+0.249*[#   8]
    |psi|^2 = 0.998
==== e(   5) =     2.36745 eV ==== 
     psi = 0.009*[#   3]+0.009*[#   4]+0.009*[#   7]+0.009*[#   8]
    |psi|^2 = 0.035
==== e(   6) =     3.43769 eV ==== 
     psi = 0.009*[#   2]+0.009*[#   6]
    |psi|^2 = 0.018
==== e(   7) =     3.94846 eV ==== 

    |psi|^2 = 0.003
==== e(   8) =     5.86748 eV ==== 
     psi = 0.005*[#   2]+0.005*[#   6]
    |psi|^2 = 0.010

 k =   0.0000000000  0.2886751346  0.0000000000
==== e(   1) =   -19.91037 eV ==== 
     psi = 0.340*[#   1]+0.340*[#   5]+0.076*[#   3]+0.076*[#   4]+0.076*[#   7]
          +0.076*[#   8]
    |psi|^2 = 0.982
==== e(   2) =    -9.24686 eV ==== 
     psi = 0.204*[#   3]+0.204*[#   4]+0.204*[#   7]+0.204*[#   8]+0.088*[#   1]
          +0.088*[#   5]
    |psi|^2 = 0.993
==== e(   3) =    -7.91006 eV ==== 
     psi = 0.490*[#   2]+0.490*[#   6]
    |psi|^2 = 0.980
==== e(   4) =    -6.93733 eV ==== 
     psi = 0.249*[#   3]+0.249*[#   4]+0.249*[#   7]+0.249*[#   8]
    |psi|^2 = 0.997
==== e(   5) =     3.49081 eV ==== 
     psi = 0.008*[#   3]+0.008*[#   4]+0.008*[#   7]+0.008*[#   8]
    |psi|^2 = 0.030
==== e(   6) =     4.54402 eV ==== 
     psi = 0.017*[#   2]+0.017*[#   6]
    |psi|^2 = 0.035
==== e(   7) =     5.10110 eV ==== 

    |psi|^2 = 0.002
==== e(   8) =     5.55336 eV ==== 
     psi = 0.458*[#   2]+0.458*[#   6]
    |psi|^2 = 0.916

 k =   0.0000000000  0.3849001795  0.0000000000
==== e(   1) =   -18.77970 eV ==== 
     psi = 0.292*[#   1]+0.292*[#   5]+0.100*[#   3]+0.100*[#   4]+0.100*[#   7]
          +0.100*[#   8]
    |psi|^2 = 0.982
==== e(   2) =   -11.46498 eV ==== 
     psi = 0.187*[#   3]+0.187*[#   4]+0.187*[#   7]+0.187*[#   8]+0.122*[#   1]
          +0.122*[#   5]
    |psi|^2 = 0.991
==== e(   3) =    -7.69304 eV ==== 
     psi = 0.249*[#   3]+0.249*[#   4]+0.249*[#   7]+0.249*[#   8]
    |psi|^2 = 0.997
==== e(   4) =    -6.60770 eV ==== 
     psi = 0.496*[#   2]+0.496*[#   6]
    |psi|^2 = 0.992
==== e(   5) =     3.13257 eV ==== 
     psi = 0.467*[#   2]+0.467*[#   6]
    |psi|^2 = 0.934
==== e(   6) =     5.05067 eV ==== 
     psi = 0.003*[#   1]+0.003*[#   5]+0.002*[#   3]+0.002*[#   4]+0.002*[#   7]
          +0.002*[#   8]
    |psi|^2 = 0.014
==== e(   7) =     6.17885 eV ==== 
     psi = 0.008*[#   2]+0.008*[#   6]
    |psi|^2 = 0.015
==== e(   8) =     6.22022 eV ==== 
     psi = 0.279*[#   1]+0.279*[#   5]+0.076*[#   3]+0.076*[#   4]+0.076*[#   7]
          +0.076*[#   8]
    |psi|^2 = 0.863

 k =   0.0000000000  0.4811252243  0.0000000000
==== e(   1) =   -17.36104 eV ==== 
     psi = 0.261*[#   1]+0.261*[#   5]+0.116*[#   3]+0.116*[#   4]+0.116*[#   7]
          +0.116*[#   8]
    |psi|^2 = 0.985
==== e(   2) =   -13.59077 eV ==== 
     psi = 0.174*[#   3]+0.174*[#   4]+0.174*[#   7]+0.174*[#   8]+0.146*[#   1]
          +0.146*[#   5]
    |psi|^2 = 0.988
==== e(   3) =    -8.17933 eV ==== 
     psi = 0.249*[#   3]+0.249*[#   4]+0.249*[#   7]+0.249*[#   8]
    |psi|^2 = 0.996
==== e(   4) =    -5.14065 eV ==== 
     psi = 0.498*[#   2]+0.498*[#   6]
    |psi|^2 = 0.996
==== e(   5) =     0.93787 eV ==== 
     psi = 0.472*[#   2]+0.472*[#   6]
    |psi|^2 = 0.943
==== e(   6) =     5.98522 eV ==== 
     psi = 0.329*[#   1]+0.329*[#   5]+0.052*[#   3]+0.052*[#   4]+0.052*[#   7]
          +0.052*[#   8]
    |psi|^2 = 0.865
==== e(   7) =     7.08222 eV ==== 
     psi = 0.006*[#   3]+0.006*[#   4]+0.006*[#   7]+0.006*[#   8]+0.004*[#   1]
          +0.004*[#   5]
    |psi|^2 = 0.031
==== e(   8) =     8.17713 eV ==== 
     psi = 0.004*[#   2]+0.004*[#   6]
    |psi|^2 = 0.007

 k =   0.0000000000 -0.5773502692  0.0000000000
==== e(   1) =   -15.99991 eV ==== 
     psi = 0.307*[#   1]+0.307*[#   5]+0.095*[#   3]+0.095*[#   4]+0.095*[#   7]
          +0.095*[#   8]
    |psi|^2 = 0.993
==== e(   2) =   -15.19582 eV ==== 
     psi = 0.196*[#   3]+0.196*[#   4]+0.196*[#   7]+0.196*[#   8]+0.098*[#   1]
          +0.098*[#   5]
    |psi|^2 = 0.979
==== e(   3) =    -8.34602 eV ==== 
     psi = 0.249*[#   3]+0.249*[#   4]+0.249*[#   7]+0.249*[#   8]
    |psi|^2 = 0.996
==== e(   4) =    -4.26232 eV ==== 
     psi = 0.499*[#   2]+0.499*[#   6]
    |psi|^2 = 0.998
==== e(   5) =    -0.19917 eV ==== 
     psi = 0.473*[#   2]+0.473*[#   6]
    |psi|^2 = 0.946
==== e(   6) =     5.91743 eV ==== 
     psi = 0.348*[#   1]+0.348*[#   5]+0.047*[#   3]+0.047*[#   4]+0.047*[#   7]
          +0.047*[#   8]
    |psi|^2 = 0.886
==== e(   7) =     9.42780 eV ==== 
     psi = 0.006*[#   1]+0.006*[#   5]
    |psi|^2 = 0.013
==== e(   8) =     9.51142 eV ==== 
     psi = 0.002*[#   3]+0.002*[#   4]+0.002*[#   7]+0.002*[#   8]
    |psi|^2 = 0.010

 k =   0.0833333333  0.1443375673  0.0000000000
==== e(   1) =   -20.89311 eV ==== 
     psi = 0.418*[#   1]+0.418*[#   5]+0.037*[#   3]+0.037*[#   4]+0.037*[#   7]
          +0.037*[#   8]
    |psi|^2 = 0.983
==== e(   2) =    -9.08432 eV ==== 
     psi = 0.481*[#   2]+0.481*[#   6]
    |psi|^2 = 0.962
==== e(   3) =    -6.53473 eV ==== 
     psi = 0.232*[#   3]+0.232*[#   4]+0.232*[#   7]+0.232*[#   8]+0.035*[#   1]
          +0.035*[#   5]
    |psi|^2 = 0.998
==== e(   4) =    -5.91176 eV ==== 
     psi = 0.246*[#   3]+0.246*[#   4]+0.246*[#   7]+0.246*[#   8]+0.006*[#   1]
          +0.006*[#   5]
    |psi|^2 = 0.995
==== e(   5) =     2.14261 eV ==== 
     psi = 0.008*[#   3]+0.008*[#   4]+0.008*[#   7]+0.008*[#   8]
    |psi|^2 = 0.032
==== e(   6) =     3.21113 eV ==== 
     psi = 0.010*[#   2]+0.010*[#   6]
    |psi|^2 = 0.020
==== e(   7) =     3.71783 eV ==== 

    |psi|^2 = 0.003
==== e(   8) =     5.64424 eV ==== 
     psi = 0.005*[#   2]+0.005*[#   6]
    |psi|^2 = 0.010

 k =   0.0833333333  0.2405626122  0.0000000000
==== e(   1) =   -20.23679 eV ==== 
     psi = 0.360*[#   1]+0.360*[#   5]+0.066*[#   3]+0.066*[#   4]+0.066*[#   7]
          +0.066*[#   8]
    |psi|^2 = 0.982
==== e(   2) =    -8.29626 eV ==== 
     psi = 0.488*[#   2]+0.488*[#   6]
    |psi|^2 = 0.975
==== e(   3) =    -8.24288 eV ==== 
     psi = 0.214*[#   3]+0.214*[#   4]+0.214*[#   7]+0.214*[#   8]+0.069*[#   1]
          +0.069*[#   5]
    |psi|^2 = 0.996
==== e(   4) =    -6.93698 eV ==== 
     psi = 0.242*[#   3]+0.242*[#   4]+0.242*[#   7]+0.242*[#   8]+0.012*[#   1]
          +0.012*[#   5]
    |psi|^2 = 0.994
==== e(   5) =     3.04306 eV ==== 
     psi = 0.009*[#   3]+0.009*[#   4]+0.009*[#   7]+0.009*[#   8]
    |psi|^2 = 0.036
==== e(   6) =     4.11520 eV ==== 
     psi = 0.007*[#   2]+0.007*[#   6]
    |psi|^2 = 0.014
==== e(   7) =     4.64124 eV ==== 

    |psi|^2 = 0.003
==== e(   8) =     6.36942 eV ==== 
     psi = 0.412*[#   2]+0.412*[#   6]
    |psi|^2 = 0.824

 k =   0.0833333333  0.3367876570  0.0000000000
==== e(   1) =   -19.26249 eV ==== 
     psi = 0.309*[#   1]+0.309*[#   5]+0.091*[#   3]+0.091*[#   4]+0.091*[#   7]
          +0.091*[#   8]
    |psi|^2 = 0.982
==== e(   2) =   -10.32830 eV ==== 
     psi = 0.196*[#   3]+0.196*[#   4]+0.196*[#   7]+0.196*[#   8]+0.104*[#   1]
          +0.104*[#   5]
    |psi|^2 = 0.993
==== e(   3) =    -7.84339 eV ==== 
     psi = 0.242*[#   3]+0.242*[#   4]+0.242*[#   7]+0.242*[#   8]+0.014*[#   1]
          +0.014*[#   5]
    |psi|^2 = 0.995
==== e(   4) =    -7.15088 eV ==== 
     psi = 0.494*[#   2]+0.494*[#   6]
    |psi|^2 = 0.988
==== e(   5) =     4.17656 eV ==== 
     psi = 0.467*[#   2]+0.467*[#   6]
    |psi|^2 = 0.933
==== e(   6) =     4.38864 eV ==== 
     psi = 0.006*[#   3]+0.006*[#   4]+0.006*[#   7]+0.006*[#   8]
    |psi|^2 = 0.023
==== e(   7) =     5.49503 eV ==== 
     psi = 0.014*[#   2]+0.014*[#   6]
    |psi|^2 = 0.028
==== e(   8) =     6.02368 eV ==== 
     psi = 0.001*[#   1]+0.001*[#   5]
    |psi|^2 = 0.003

 k =   0.0833333333  0.4330127019  0.0000000000
==== e(   1) =   -17.98610 eV ==== 
     psi = 0.270*[#   1]+0.270*[#   5]+0.111*[#   3]+0.111*[#   4]+0.111*[#   7]
          +0.111*[#   8]
    |psi|^2 = 0.983
==== e(   2) =   -12.47114 eV ==== 
     psi = 0.180*[#   3]+0.180*[#   4]+0.180*[#   7]+0.180*[#   8]+0.135*[#   1]
          +0.135*[#   5]
    |psi|^2 = 0.990
==== e(   3) =    -8.49161 eV ==== 
     psi = 0.241*[#   3]+0.241*[#   4]+0.241*[#   7]+0.241*[#   8]+0.015*[#   1]
          +0.015*[#   5]
    |psi|^2 = 0.995
==== e(   4) =    -5.73162 eV ==== 
     psi = 0.497*[#   2]+0.497*[#   6]
    |psi|^2 = 0.995
==== e(   5) =     1.92112 eV ==== 
     psi = 0.474*[#   2]+0.474*[#   6]
    |psi|^2 = 0.948
==== e(   6) =     6.15741 eV ==== 
     psi = 0.010*[#   1]+0.010*[#   5]
    |psi|^2 = 0.023
==== e(   7) =     6.82277 eV ==== 
     psi = 0.282*[#   1]+0.282*[#   5]+0.074*[#   3]+0.074*[#   4]+0.074*[#   7]
          +0.074*[#   8]
    |psi|^2 = 0.859
==== e(   8) =     7.26595 eV ==== 
     psi = 0.004*[#   2]+0.004*[#   6]
    |psi|^2 = 0.007

 k =   0.0833333333  0.5292377468  0.0000000000
==== e(   1) =   -16.46449 eV ==== 
     psi = 0.257*[#   1]+0.257*[#   5]+0.119*[#   3]+0.119*[#   4]+0.119*[#   7]
          +0.119*[#   8]
    |psi|^2 = 0.988
==== e(   2) =   -14.45808 eV ==== 
     psi = 0.174*[#   3]+0.174*[#   4]+0.174*[#   7]+0.174*[#   8]+0.144*[#   1]
          +0.144*[#   5]
    |psi|^2 = 0.986
==== e(   3) =    -8.82769 eV ==== 
     psi = 0.241*[#   3]+0.241*[#   4]+0.241*[#   7]+0.241*[#   8]+0.015*[#   1]
          +0.015*[#   5]
    |psi|^2 = 0.995
==== e(   4) =    -4.37724 eV ==== 
     psi = 0.499*[#   2]+0.499*[#   6]
    |psi|^2 = 0.997
==== e(   5) =     0.09655 eV ==== 
     psi = 0.476*[#   2]+0.476*[#   6]
    |psi|^2 = 0.951
==== e(   6) =     6.64546 eV ==== 
     psi = 0.324*[#   1]+0.324*[#   5]+0.056*[#   3]+0.056*[#   4]+0.056*[#   7]
          +0.056*[#   8]
    |psi|^2 = 0.869
==== e(   7) =     8.38505 eV ==== 
     psi = 0.002*[#   3]+0.002*[#   4]+0.002*[#   7]+0.002*[#   8]+0.002*[#   1]
          +0.002*[#   5]
    |psi|^2 = 0.012
==== e(   8) =     9.39960 eV ==== 
     psi = 0.005*[#   2]+0.005*[#   6]
    |psi|^2 = 0.009

 k =   0.1666666667  0.2886751346  0.0000000000
==== e(   1) =   -19.42453 eV ==== 
     psi = 0.315*[#   1]+0.315*[#   5]+0.088*[#   3]+0.088*[#   4]+0.088*[#   7]
          +0.088*[#   8]
    |psi|^2 = 0.981
==== e(   2) =    -9.55629 eV ==== 
     psi = 0.202*[#   3]+0.202*[#   4]+0.202*[#   7]+0.202*[#   8]+0.094*[#   1]
          +0.094*[#   5]
    |psi|^2 = 0.997
==== e(   3) =    -8.33874 eV ==== 
     psi = 0.233*[#   3]+0.233*[#   4]+0.233*[#   7]+0.233*[#   8]+0.029*[#   1]
          +0.029*[#   5]
    |psi|^2 = 0.991
==== e(   4) =    -7.33498 eV ==== 
     psi = 0.493*[#   2]+0.493*[#   6]
    |psi|^2 = 0.986
==== e(   5) =     4.16690 eV ==== 
     psi = 0.007*[#   3]+0.007*[#   4]+0.007*[#   7]+0.007*[#   8]
    |psi|^2 = 0.028
==== e(   6) =     4.65278 eV ==== 
     psi = 0.485*[#   2]+0.485*[#   6]
    |psi|^2 = 0.969
==== e(   7) =     5.23601 eV ==== 
     psi = 0.004*[#   2]+0.004*[#   6]
    |psi|^2 = 0.007
==== e(   8) =     5.79598 eV ==== 

    |psi|^2 = 0.002

 k =   0.1666666667  0.3849001795  0.0000000000
==== e(   1) =   -18.30423 eV ==== 
     psi = 0.276*[#   1]+0.276*[#   5]+0.108*[#   3]+0.108*[#   4]+0.108*[#   7]
          +0.108*[#   8]
    |psi|^2 = 0.983
==== e(   2) =   -11.29711 eV ==== 
     psi = 0.187*[#   3]+0.187*[#   4]+0.187*[#   7]+0.187*[#   8]+0.123*[#   1]
          +0.123*[#   5]
    |psi|^2 = 0.994
==== e(   3) =    -9.40792 eV ==== 
     psi = 0.229*[#   3]+0.229*[#   4]+0.229*[#   7]+0.229*[#   8]+0.037*[#   1]
          +0.037*[#   5]
    |psi|^2 = 0.992
==== e(   4) =    -6.04748 eV ==== 
     psi = 0.497*[#   2]+0.497*[#   6]
    |psi|^2 = 0.994
==== e(   5) =     2.66449 eV ==== 
     psi = 0.485*[#   2]+0.485*[#   6]
    |psi|^2 = 0.969
==== e(   6) =     5.72974 eV ==== 
     psi = 0.004*[#   3]+0.004*[#   4]+0.004*[#   7]+0.004*[#   8]
    |psi|^2 = 0.015
==== e(   7) =     6.77132 eV ==== 
     psi = 0.002*[#   2]+0.002*[#   6]
    |psi|^2 = 0.004
==== e(   8) =     7.40961 eV ==== 

    |psi|^2 = 0.002

 k =   0.1666666667  0.4811252243  0.0000000000
==== e(   1) =   -16.90535 eV ==== 
     psi = 0.248*[#   1]+0.248*[#   5]+0.123*[#   3]+0.123*[#   4]+0.123*[#   7]
          +0.123*[#   8]
    |psi|^2 = 0.986
==== e(   2) =   -13.24227 eV ==== 
     psi = 0.175*[#   3]+0.175*[#   4]+0.175*[#   7]+0.175*[#   8]+0.145*[#   1]
          +0.145*[#   5]
    |psi|^2 = 0.990
==== e(   3) =    -9.98148 eV ==== 
     psi = 0.228*[#   3]+0.228*[#   4]+0.228*[#   7]+0.228*[#   8]+0.041*[#   1]
          +0.041*[#   5]
    |psi|^2 = 0.992
==== e(   4) =    -4.57792 eV ==== 
     psi = 0.498*[#   2]+0.498*[#   6]
    |psi|^2 = 0.996
==== e(   5) =     0.70307 eV ==== 
     psi = 0.484*[#   2]+0.484*[#   6]
    |psi|^2 = 0.968
==== e(   6) =     7.70551 eV ==== 
     psi = 0.006*[#   1]+0.006*[#   5]
    |psi|^2 = 0.017
==== e(   7) =     8.53165 eV ==== 
     psi = 0.260*[#   1]+0.260*[#   5]+0.074*[#   3]+0.074*[#   4]+0.074*[#   7]
          +0.074*[#   8]
    |psi|^2 = 0.816
==== e(   8) =     8.59569 eV ==== 
     psi = 0.003*[#   2]+0.003*[#   6]
    |psi|^2 = 0.005

 k =   0.1666666667  0.5773502692  0.0000000000
==== e(   1) =   -15.58413 eV ==== 
     psi = 0.281*[#   1]+0.281*[#   5]+0.108*[#   3]+0.108*[#   4]+0.108*[#   7]
          +0.108*[#   8]
    |psi|^2 = 0.993
==== e(   2) =   -14.76885 eV ==== 
     psi = 0.191*[#   3]+0.191*[#   4]+0.191*[#   7]+0.191*[#   8]+0.109*[#   1]
          +0.109*[#   5]
    |psi|^2 = 0.982
==== e(   3) =   -10.16656 eV ==== 
     psi = 0.227*[#   3]+0.227*[#   4]+0.227*[#   7]+0.227*[#   8]+0.042*[#   1]
          +0.042*[#   5]
    |psi|^2 = 0.993
==== e(   4) =    -3.65269 eV ==== 
     psi = 0.499*[#   2]+0.499*[#   6]
    |psi|^2 = 0.998
==== e(   5) =    -0.40174 eV ==== 
     psi = 0.483*[#   2]+0.483*[#   6]
    |psi|^2 = 0.967
==== e(   6) =     8.43778 eV ==== 
     psi = 0.284*[#   1]+0.284*[#   5]+0.065*[#   3]+0.065*[#   4]+0.065*[#   7]
          +0.065*[#   8]
    |psi|^2 = 0.828
==== e(   7) =     9.74734 eV ==== 
     psi = 0.009*[#   2]+0.009*[#   6]
    |psi|^2 = 0.019
==== e(   8) =     9.98280 eV ==== 
     psi = 0.014*[#   1]+0.014*[#   5]+0.003*[#   3]+0.003*[#   4]+0.003*[#   7]
          +0.003*[#   8]
    |psi|^2 = 0.040

 k =   0.2500000000  0.4330127019  0.0000000000
==== e(   1) =   -17.05881 eV ==== 
     psi = 0.247*[#   1]+0.247*[#   5]+0.123*[#   3]+0.123*[#   4]+0.123*[#   7]
          +0.123*[#   8]
    |psi|^2 = 0.985
==== e(   2) =   -12.29751 eV ==== 
     psi = 0.171*[#   3]+0.171*[#   4]+0.171*[#   7]+0.171*[#   8]+0.156*[#   1]
          +0.156*[#   5]
    |psi|^2 = 0.995
==== e(   3) =   -10.94781 eV ==== 
     psi = 0.228*[#   3]+0.228*[#   4]+0.228*[#   7]+0.228*[#   8]+0.038*[#   1]
          +0.038*[#   5]
    |psi|^2 = 0.988
==== e(   4) =    -4.66651 eV ==== 
     psi = 0.498*[#   2]+0.498*[#   6]
    |psi|^2 = 0.996
==== e(   5) =     1.02391 eV ==== 
     psi = 0.491*[#   2]+0.491*[#   6]
    |psi|^2 = 0.982
==== e(   6) =     7.49095 eV ==== 
     psi = 0.002*[#   1]+0.002*[#   5]+0.001*[#   3]+0.001*[#   4]+0.001*[#   7]
          +0.001*[#   8]
    |psi|^2 = 0.009
==== e(   7) =     8.27059 eV ==== 

    |psi|^2 = 0.000
==== e(   8) =     9.25007 eV ==== 
     psi = 0.001*[#   1]+0.001*[#   5]
    |psi|^2 = 0.004

 k =   0.2500000000  0.5292377468  0.0000000000
==== e(   1) =   -15.59826 eV ==== 
     psi = 0.232*[#   1]+0.232*[#   5]+0.132*[#   3]+0.132*[#   4]+0.132*[#   7]
          +0.132*[#   8]
    |psi|^2 = 0.990
==== e(   2) =   -13.76285 eV ==== 
     psi = 0.165*[#   3]+0.165*[#   4]+0.165*[#   7]+0.165*[#   8]+0.165*[#   1]
          +0.165*[#   5]
    |psi|^2 = 0.991
==== e(   3) =   -11.65316 eV ==== 
     psi = 0.224*[#   3]+0.224*[#   4]+0.224*[#   7]+0.224*[#   8]+0.046*[#   1]
          +0.046*[#   5]
    |psi|^2 = 0.988
==== e(   4) =    -3.24007 eV ==== 
     psi = 0.498*[#   2]+0.498*[#   6]
    |psi|^2 = 0.996
==== e(   5) =    -0.53196 eV ==== 
     psi = 0.493*[#   2]+0.493*[#   6]
    |psi|^2 = 0.986
==== e(   6) =     8.93075 eV ==== 
     psi = 0.002*[#   2]+0.002*[#   6]
    |psi|^2 = 0.004
==== e(   7) =     9.59508 eV ==== 
     psi = 0.013*[#   1]+0.013*[#   5]+0.003*[#   3]+0.003*[#   4]+0.003*[#   7]
          +0.003*[#   8]
    |psi|^2 = 0.037
==== e(   8) =    10.65257 eV ==== 
     psi = 0.215*[#   1]+0.215*[#   5]+0.067*[#   3]+0.067*[#   4]+0.067*[#   7]
          +0.067*[#   8]
    |psi|^2 = 0.698

 k =   0.3333333333  0.5773502692  0.0000000000
==== e(   1) =   -14.34032 eV ==== 
     psi = 0.223*[#   1]+0.223*[#   5]+0.137*[#   3]+0.137*[#   4]+0.137*[#   7]
          +0.137*[#   8]
    |psi|^2 = 0.994
==== e(   2) =   -14.34032 eV ==== 
     psi = 0.223*[#   1]+0.223*[#   5]+0.137*[#   3]+0.137*[#   4]+0.137*[#   7]
          +0.137*[#   8]
    |psi|^2 = 0.994
==== e(   3) =   -12.65254 eV ==== 
     psi = 0.245*[#   3]+0.245*[#   4]+0.245*[#   7]+0.245*[#   8]
    |psi|^2 = 0.981
==== e(   4) =    -1.84981 eV ==== 
     psi = 0.497*[#   2]+0.497*[#   6]
    |psi|^2 = 0.994
==== e(   5) =    -1.84981 eV ==== 
     psi = 0.497*[#   2]+0.497*[#   6]
    |psi|^2 = 0.994
==== e(   6) =     8.60417 eV ==== 

    |psi|^2 = 0.000
==== e(   7) =    11.21842 eV ==== 
     psi = 0.099*[#   1]+0.099*[#   5]+0.028*[#   3]+0.028*[#   4]+0.028*[#   7]
          +0.028*[#   8]
    |psi|^2 = 0.312
==== e(   8) =    11.21842 eV ==== 
     psi = 0.099*[#   1]+0.099*[#   5]+0.028*[#   3]+0.028*[#   4]+0.028*[#   7]
          +0.028*[#   8]
    |psi|^2 = 0.312

Lowdin Charges: 

     Atom #   1: total charge =   3.9576, s =  0.8677, 
     Atom #   1: total charge =   3.9576, p =  3.0898, pz=  0.9875, px=  1.0512, py=  1.0512, 
     Atom #   2: total charge =   3.9576, s =  0.8677, 
     Atom #   2: total charge =   3.9576, p =  3.0898, pz=  0.9875, px=  1.0512, py=  1.0512, 
     Spilling Parameter:   0.0106

     PROJWFC      :      0.37s CPU      0.23s WALL


   This run was terminated on:  17:44:39  14Feb2024            

=------------------------------------------------------------------------------=
   JOB DONE.
=------------------------------------------------------------------------------=
