
     Program PWSCF v.7.2 starts on 15Apr2024 at 14:30:10 

     This program is part of the open-source Quantum ESPRESSO suite
     for quantum simulation of materials; please cite
         "P. Giannozzi et al., J. Phys.:Condens. Matter 21 395502 (2009);
         "P. Giannozzi et al., J. Phys.:Condens. Matter 29 465901 (2017);
         "P. Giannozzi et al., J. Chem. Phys. 152 154105 (2020);
          URL http://www.quantum-espresso.org", 
     in publications or presentations arising from this work. More details at
     http://www.quantum-espresso.org/quote

     Parallel version (MPI & OpenMP), running on       8 processor cores
     Number of MPI processes:                 8
     Threads/MPI process:                     1

     MPI processes distributed on     1 nodes
     0 MiB available memory on the printing compute node when the environment starts

     Waiting for input...
     Reading input from standard input

     Current dimensions of program PWSCF are:
     Max number of different atomic species (ntypx) = 10
     Max number of k-points (npk) =  40000
     Max angular momentum in pseudopotentials (lmaxx) =  4

     Atomic positions and unit cell read from directory:
     ./tmp50/graphene_PBE_vdW.save/
     Atomic positions from file used, from input discarded


     IMPORTANT: XC functional enforced from input :
     Exchange-correlation= VDW-DF2-B86R
                           (   1   4  26   0   2   0   0)
     Any further DFT definition will be discarded
     Please, verify this is what you really want


     R & G space division:  proc/nbgrp/npool/nimage =       8
     Subspace diagonalization in iterative solution of the eigenvalue problem:
     a serial algorithm will be used


     Parallelization info
     --------------------
     sticks:   dense  smooth     PW     G-vecs:    dense   smooth      PW
     Min          45      45     13                 4137     4137     699
     Max          46      46     14                 4158     4158     720
     Sum         361     361    109                33185    33185    5693

     Using Slab Decomposition



     bravais-lattice index     =            4
     lattice parameter (alat)  =       4.6640  a.u.
     unit-cell volume          =     527.1783 (a.u.)^3
     number of atoms/cell      =            2
     number of atomic types    =            1
     number of electrons       =         8.00
     number of Kohn-Sham states=           10
     kinetic-energy cutoff     =      60.0000  Ry
     charge density cutoff     =     240.0000  Ry
     Exchange-correlation= VDW-DF2-B86R
                           (   1   4  26   0   2   0   0)

     celldm(1)=   4.664000  celldm(2)=   0.000000  celldm(3)=   6.000000
     celldm(4)=   0.000000  celldm(5)=   0.000000  celldm(6)=   0.000000

     crystal axes: (cart. coord. in units of alat)
               a(1) = (   1.000000   0.000000   0.000000 )  
               a(2) = (  -0.500000   0.866025   0.000000 )  
               a(3) = (   0.000000   0.000000   6.000000 )  

     reciprocal axes: (cart. coord. in units 2 pi/alat)
               b(1) = (  1.000000  0.577350 -0.000000 )  
               b(2) = (  0.000000  1.154701  0.000000 )  
               b(3) = (  0.000000 -0.000000  0.166667 )  


     PseudoPot. # 1 for C  read from file:
     ../../../Pseudo/PBE/C.upf
     MD5 check sum: 34a24e64c0a39f27c6c36b90a16ac686
     Pseudo is Norm-conserving + core correction, Zval =  4.0
     Generated using ONCVPSP code by D. R. Hamann
     Using radial grid of 1248 points,  4 beta functions with: 
                l(1) =   0
                l(2) =   0
                l(3) =   1
                l(4) =   1

     atomic species   valence    mass     pseudopotential
        C              4.00    12.01100     C ( 1.00)

     24 Sym. Ops., with inversion, found (12 have fractional translation)


                                    s                        frac. trans.

      isym =  1     identity                                     

 cryst.   s( 1) = (     1          0          0      )
                  (     0          1          0      )
                  (     0          0          1      )

 cart.    s( 1) = (  1.0000000  0.0000000  0.0000000 )
                  (  0.0000000  1.0000000  0.0000000 )
                  (  0.0000000  0.0000000  1.0000000 )


      isym =  2     180 deg rotation - cart. axis [0,0,1]        

 cryst.   s( 2) = (    -1          0          0      )    f =( -0.3333333 )
                  (     0         -1          0      )       (  0.3333333 )
                  (     0          0          1      )       (  0.0000000 )

 cart.    s( 2) = ( -1.0000000  0.0000000  0.0000000 )    f =( -0.5000000 )
                  (  0.0000000 -1.0000000  0.0000000 )       (  0.2886751 )
                  (  0.0000000  0.0000000  1.0000000 )       (  0.0000000 )


      isym =  3     180 deg rotation - cart. axis [0,1,0]        

 cryst.   s( 3) = (    -1          0          0      )
                  (     1          1          0      )
                  (     0          0         -1      )

 cart.    s( 3) = ( -1.0000000  0.0000000  0.0000000 )
                  (  0.0000000  1.0000000  0.0000000 )
                  (  0.0000000  0.0000000 -1.0000000 )


      isym =  4     180 deg rotation - cart. axis [1,0,0]        

 cryst.   s( 4) = (     1          0          0      )    f =( -0.3333333 )
                  (    -1         -1          0      )       (  0.3333333 )
                  (     0          0         -1      )       (  0.0000000 )

 cart.    s( 4) = (  1.0000000  0.0000000  0.0000000 )    f =( -0.5000000 )
                  (  0.0000000 -1.0000000  0.0000000 )       (  0.2886751 )
                  (  0.0000000  0.0000000 -1.0000000 )       (  0.0000000 )


      isym =  5      60 deg rotation - cryst. axis [0,0,1]       

 cryst.   s( 5) = (     1          1          0      )    f =( -0.3333333 )
                  (    -1          0          0      )       (  0.3333333 )
                  (     0          0          1      )       (  0.0000000 )

 cart.    s( 5) = (  0.5000000 -0.8660254  0.0000000 )    f =( -0.5000000 )
                  (  0.8660254  0.5000000  0.0000000 )       (  0.2886751 )
                  (  0.0000000  0.0000000  1.0000000 )       (  0.0000000 )


      isym =  6      60 deg rotation - cryst. axis [0,0,-1]      

 cryst.   s( 6) = (     0         -1          0      )    f =( -0.3333333 )
                  (     1          1          0      )       (  0.3333333 )
                  (     0          0          1      )       (  0.0000000 )

 cart.    s( 6) = (  0.5000000  0.8660254  0.0000000 )    f =( -0.5000000 )
                  ( -0.8660254  0.5000000  0.0000000 )       (  0.2886751 )
                  (  0.0000000  0.0000000  1.0000000 )       (  0.0000000 )


      isym =  7     120 deg rotation - cryst. axis [0,0,1]       

 cryst.   s( 7) = (     0          1          0      )
                  (    -1         -1          0      )
                  (     0          0          1      )

 cart.    s( 7) = ( -0.5000000 -0.8660254  0.0000000 )
                  (  0.8660254 -0.5000000  0.0000000 )
                  (  0.0000000  0.0000000  1.0000000 )


      isym =  8     120 deg rotation - cryst. axis [0,0,-1]      

 cryst.   s( 8) = (    -1         -1          0      )
                  (     1          0          0      )
                  (     0          0          1      )

 cart.    s( 8) = ( -0.5000000  0.8660254  0.0000000 )
                  ( -0.8660254 -0.5000000  0.0000000 )
                  (  0.0000000  0.0000000  1.0000000 )


      isym =  9     180 deg rotation - cryst. axis [1,-1,0]      

 cryst.   s( 9) = (     0         -1          0      )
                  (    -1          0          0      )
                  (     0          0         -1      )

 cart.    s( 9) = (  0.5000000 -0.8660254  0.0000000 )
                  ( -0.8660254 -0.5000000  0.0000000 )
                  (  0.0000000  0.0000000 -1.0000000 )


      isym = 10     180 deg rotation - cryst. axis [2,1,0]       

 cryst.   s(10) = (     1          1          0      )
                  (     0         -1          0      )
                  (     0          0         -1      )

 cart.    s(10) = (  0.5000000  0.8660254  0.0000000 )
                  (  0.8660254 -0.5000000  0.0000000 )
                  (  0.0000000  0.0000000 -1.0000000 )


      isym = 11     180 deg rotation - cryst. axis [0,1,0]       

 cryst.   s(11) = (    -1         -1          0      )    f =( -0.3333333 )
                  (     0          1          0      )       (  0.3333333 )
                  (     0          0         -1      )       (  0.0000000 )

 cart.    s(11) = ( -0.5000000 -0.8660254  0.0000000 )    f =( -0.5000000 )
                  ( -0.8660254  0.5000000  0.0000000 )       (  0.2886751 )
                  (  0.0000000  0.0000000 -1.0000000 )       (  0.0000000 )


      isym = 12     180 deg rotation - cryst. axis [1,1,0]       

 cryst.   s(12) = (     0          1          0      )    f =( -0.3333333 )
                  (     1          0          0      )       (  0.3333333 )
                  (     0          0         -1      )       (  0.0000000 )

 cart.    s(12) = ( -0.5000000  0.8660254  0.0000000 )    f =( -0.5000000 )
                  (  0.8660254  0.5000000  0.0000000 )       (  0.2886751 )
                  (  0.0000000  0.0000000 -1.0000000 )       (  0.0000000 )


      isym = 13     inversion                                    

 cryst.   s(13) = (    -1          0          0      )    f =( -0.3333333 )
                  (     0         -1          0      )       (  0.3333333 )
                  (     0          0         -1      )       (  0.0000000 )

 cart.    s(13) = ( -1.0000000  0.0000000  0.0000000 )    f =( -0.5000000 )
                  (  0.0000000 -1.0000000  0.0000000 )       (  0.2886751 )
                  (  0.0000000  0.0000000 -1.0000000 )       (  0.0000000 )


      isym = 14     inv. 180 deg rotation - cart. axis [0,0,1]   

 cryst.   s(14) = (     1          0          0      )
                  (     0          1          0      )
                  (     0          0         -1      )

 cart.    s(14) = (  1.0000000  0.0000000  0.0000000 )
                  (  0.0000000  1.0000000  0.0000000 )
                  (  0.0000000  0.0000000 -1.0000000 )


      isym = 15     inv. 180 deg rotation - cart. axis [0,1,0]   

 cryst.   s(15) = (     1          0          0      )    f =( -0.3333333 )
                  (    -1         -1          0      )       (  0.3333333 )
                  (     0          0          1      )       (  0.0000000 )

 cart.    s(15) = (  1.0000000  0.0000000  0.0000000 )    f =( -0.5000000 )
                  (  0.0000000 -1.0000000  0.0000000 )       (  0.2886751 )
                  (  0.0000000  0.0000000  1.0000000 )       (  0.0000000 )


      isym = 16     inv. 180 deg rotation - cart. axis [1,0,0]   

 cryst.   s(16) = (    -1          0          0      )
                  (     1          1          0      )
                  (     0          0          1      )

 cart.    s(16) = ( -1.0000000  0.0000000  0.0000000 )
                  (  0.0000000  1.0000000  0.0000000 )
                  (  0.0000000  0.0000000  1.0000000 )


      isym = 17     inv.  60 deg rotation - cryst. axis [0,0,1]  

 cryst.   s(17) = (    -1         -1          0      )
                  (     1          0          0      )
                  (     0          0         -1      )

 cart.    s(17) = ( -0.5000000  0.8660254  0.0000000 )
                  ( -0.8660254 -0.5000000  0.0000000 )
                  (  0.0000000  0.0000000 -1.0000000 )


      isym = 18     inv.  60 deg rotation - cryst. axis [0,0,-1] 

 cryst.   s(18) = (     0          1          0      )
                  (    -1         -1          0      )
                  (     0          0         -1      )

 cart.    s(18) = ( -0.5000000 -0.8660254  0.0000000 )
                  (  0.8660254 -0.5000000  0.0000000 )
                  (  0.0000000  0.0000000 -1.0000000 )


      isym = 19     inv. 120 deg rotation - cryst. axis [0,0,1]  

 cryst.   s(19) = (     0         -1          0      )    f =( -0.3333333 )
                  (     1          1          0      )       (  0.3333333 )
                  (     0          0         -1      )       (  0.0000000 )

 cart.    s(19) = (  0.5000000  0.8660254  0.0000000 )    f =( -0.5000000 )
                  ( -0.8660254  0.5000000  0.0000000 )       (  0.2886751 )
                  (  0.0000000  0.0000000 -1.0000000 )       (  0.0000000 )


      isym = 20     inv. 120 deg rotation - cryst. axis [0,0,-1] 

 cryst.   s(20) = (     1          1          0      )    f =( -0.3333333 )
                  (    -1          0          0      )       (  0.3333333 )
                  (     0          0         -1      )       (  0.0000000 )

 cart.    s(20) = (  0.5000000 -0.8660254  0.0000000 )    f =( -0.5000000 )
                  (  0.8660254  0.5000000  0.0000000 )       (  0.2886751 )
                  (  0.0000000  0.0000000 -1.0000000 )       (  0.0000000 )


      isym = 21     inv. 180 deg rotation - cryst. axis [1,-1,0] 

 cryst.   s(21) = (     0          1          0      )    f =( -0.3333333 )
                  (     1          0          0      )       (  0.3333333 )
                  (     0          0          1      )       (  0.0000000 )

 cart.    s(21) = ( -0.5000000  0.8660254  0.0000000 )    f =( -0.5000000 )
                  (  0.8660254  0.5000000  0.0000000 )       (  0.2886751 )
                  (  0.0000000  0.0000000  1.0000000 )       (  0.0000000 )


      isym = 22     inv. 180 deg rotation - cryst. axis [2,1,0]  

 cryst.   s(22) = (    -1         -1          0      )    f =( -0.3333333 )
                  (     0          1          0      )       (  0.3333333 )
                  (     0          0          1      )       (  0.0000000 )

 cart.    s(22) = ( -0.5000000 -0.8660254  0.0000000 )    f =( -0.5000000 )
                  ( -0.8660254  0.5000000  0.0000000 )       (  0.2886751 )
                  (  0.0000000  0.0000000  1.0000000 )       (  0.0000000 )


      isym = 23     inv. 180 deg rotation - cryst. axis [0,1,0]  

 cryst.   s(23) = (     1          1          0      )
                  (     0         -1          0      )
                  (     0          0          1      )

 cart.    s(23) = (  0.5000000  0.8660254  0.0000000 )
                  (  0.8660254 -0.5000000  0.0000000 )
                  (  0.0000000  0.0000000  1.0000000 )


      isym = 24     inv. 180 deg rotation - cryst. axis [1,1,0]  

 cryst.   s(24) = (     0         -1          0      )
                  (    -1          0          0      )
                  (     0          0          1      )

 cart.    s(24) = (  0.5000000 -0.8660254  0.0000000 )
                  ( -0.8660254 -0.5000000  0.0000000 )
                  (  0.0000000  0.0000000  1.0000000 )


     point group D_6h(6/mmm)
     there are 12 classes
     the character table:

       E     2C6   2C3   C2    3C2'  3C2'' i     2S3   2S6   s_h   3s_d  3s_v 
A_1g   1.00  1.00  1.00  1.00  1.00  1.00  1.00  1.00  1.00  1.00  1.00  1.00
A_2g   1.00  1.00  1.00  1.00 -1.00 -1.00  1.00  1.00  1.00  1.00 -1.00 -1.00
B_1g   1.00 -1.00  1.00 -1.00  1.00 -1.00  1.00 -1.00  1.00 -1.00  1.00 -1.00
B_2g   1.00 -1.00  1.00 -1.00 -1.00  1.00  1.00 -1.00  1.00 -1.00 -1.00  1.00
E_1g   2.00  1.00 -1.00 -2.00  0.00  0.00  2.00  1.00 -1.00 -2.00  0.00  0.00
E_2g   2.00 -1.00 -1.00  2.00  0.00  0.00  2.00 -1.00 -1.00  2.00  0.00  0.00
A_1u   1.00  1.00  1.00  1.00  1.00  1.00 -1.00 -1.00 -1.00 -1.00 -1.00 -1.00
A_2u   1.00  1.00  1.00  1.00 -1.00 -1.00 -1.00 -1.00 -1.00 -1.00  1.00  1.00
B_1u   1.00 -1.00  1.00 -1.00  1.00 -1.00 -1.00  1.00 -1.00  1.00 -1.00  1.00
B_2u   1.00 -1.00  1.00 -1.00 -1.00  1.00 -1.00  1.00 -1.00  1.00  1.00 -1.00
E_1u   2.00  1.00 -1.00 -2.00  0.00  0.00 -2.00 -1.00  1.00  2.00  0.00  0.00
E_2u   2.00 -1.00 -1.00  2.00  0.00  0.00 -2.00  1.00  1.00 -2.00  0.00  0.00

     the symmetry operations in each class and the name of the first element:

     E        1
          identity                                               
     2C6      5    6
           60 deg rotation - cryst. axis [0,0,1]                 
     2C3      7    8
          120 deg rotation - cryst. axis [0,0,1]                 
     C2       2
          180 deg rotation - cart. axis [0,0,1]                  
     3C2'     4   12   11
          180 deg rotation - cart. axis [1,0,0]                  
     3C2''    3    9   10
          180 deg rotation - cart. axis [0,1,0]                  
     i       13
          inversion                                              
     2S3     17   18
          inv.  60 deg rotation - cryst. axis [0,0,1]            
     2S6     19   20
          inv. 120 deg rotation - cryst. axis [0,0,1]            
     s_h     14
          inv. 180 deg rotation - cart. axis [0,0,1]             
     3s_d    16   24   23
          inv. 180 deg rotation - cart. axis [1,0,0]             
     3s_v    15   21   22
          inv. 180 deg rotation - cart. axis [0,1,0]             

   Cartesian axes

     site n.     atom                  positions (alat units)
         1           C   tau(   1) = (   0.0000000   0.0000000   0.0000000  )
         2           C   tau(   2) = (  -0.0000000   0.5773503   0.0000000  )

   Crystallographic axes

     site n.     atom                  positions (cryst. coord.)
         1           C   tau(   1) = (  0.0000000  0.0000000  0.0000000  )
         2           C   tau(   2) = (  0.3333333  0.6666667  0.0000000  )

     number of k points=   234  Marzari-Vanderbilt smearing, width (Ry)=  0.0050
                       cart. coord. in units 2pi/alat
        k(    1) = (   0.0000000   0.0000000   0.0000000), wk =   0.0008000
        k(    2) = (   0.0000000   0.0230940   0.0000000), wk =   0.0048000
        k(    3) = (   0.0000000   0.0461880   0.0000000), wk =   0.0048000
        k(    4) = (   0.0000000   0.0692820   0.0000000), wk =   0.0048000
        k(    5) = (   0.0000000   0.0923760   0.0000000), wk =   0.0048000
        k(    6) = (   0.0000000   0.1154701   0.0000000), wk =   0.0048000
        k(    7) = (   0.0000000   0.1385641   0.0000000), wk =   0.0048000
        k(    8) = (   0.0000000   0.1616581   0.0000000), wk =   0.0048000
        k(    9) = (   0.0000000   0.1847521   0.0000000), wk =   0.0048000
        k(   10) = (   0.0000000   0.2078461   0.0000000), wk =   0.0048000
        k(   11) = (   0.0000000   0.2309401   0.0000000), wk =   0.0048000
        k(   12) = (   0.0000000   0.2540341   0.0000000), wk =   0.0048000
        k(   13) = (   0.0000000   0.2771281   0.0000000), wk =   0.0048000
        k(   14) = (   0.0000000   0.3002221   0.0000000), wk =   0.0048000
        k(   15) = (   0.0000000   0.3233162   0.0000000), wk =   0.0048000
        k(   16) = (   0.0000000   0.3464102   0.0000000), wk =   0.0048000
        k(   17) = (   0.0000000   0.3695042   0.0000000), wk =   0.0048000
        k(   18) = (   0.0000000   0.3925982   0.0000000), wk =   0.0048000
        k(   19) = (   0.0000000   0.4156922   0.0000000), wk =   0.0048000
        k(   20) = (   0.0000000   0.4387862   0.0000000), wk =   0.0048000
        k(   21) = (   0.0000000   0.4618802   0.0000000), wk =   0.0048000
        k(   22) = (   0.0000000   0.4849742   0.0000000), wk =   0.0048000
        k(   23) = (   0.0000000   0.5080682   0.0000000), wk =   0.0048000
        k(   24) = (   0.0000000   0.5311622   0.0000000), wk =   0.0048000
        k(   25) = (   0.0000000   0.5542563   0.0000000), wk =   0.0048000
        k(   26) = (   0.0000000  -0.5773503   0.0000000), wk =   0.0024000
        k(   27) = (   0.0200000   0.0346410   0.0000000), wk =   0.0048000
        k(   28) = (   0.0200000   0.0577350   0.0000000), wk =   0.0096000
        k(   29) = (   0.0200000   0.0808290   0.0000000), wk =   0.0096000
        k(   30) = (   0.0200000   0.1039230   0.0000000), wk =   0.0096000
        k(   31) = (   0.0200000   0.1270171   0.0000000), wk =   0.0096000
        k(   32) = (   0.0200000   0.1501111   0.0000000), wk =   0.0096000
        k(   33) = (   0.0200000   0.1732051   0.0000000), wk =   0.0096000
        k(   34) = (   0.0200000   0.1962991   0.0000000), wk =   0.0096000
        k(   35) = (   0.0200000   0.2193931   0.0000000), wk =   0.0096000
        k(   36) = (   0.0200000   0.2424871   0.0000000), wk =   0.0096000
        k(   37) = (   0.0200000   0.2655811   0.0000000), wk =   0.0096000
        k(   38) = (   0.0200000   0.2886751   0.0000000), wk =   0.0096000
        k(   39) = (   0.0200000   0.3117691   0.0000000), wk =   0.0096000
        k(   40) = (   0.0200000   0.3348632   0.0000000), wk =   0.0096000
        k(   41) = (   0.0200000   0.3579572   0.0000000), wk =   0.0096000
        k(   42) = (   0.0200000   0.3810512   0.0000000), wk =   0.0096000
        k(   43) = (   0.0200000   0.4041452   0.0000000), wk =   0.0096000
        k(   44) = (   0.0200000   0.4272392   0.0000000), wk =   0.0096000
        k(   45) = (   0.0200000   0.4503332   0.0000000), wk =   0.0096000
        k(   46) = (   0.0200000   0.4734272   0.0000000), wk =   0.0096000
        k(   47) = (   0.0200000   0.4965212   0.0000000), wk =   0.0096000
        k(   48) = (   0.0200000   0.5196152   0.0000000), wk =   0.0096000
        k(   49) = (   0.0200000   0.5427093   0.0000000), wk =   0.0096000
        k(   50) = (   0.0200000   0.5658033   0.0000000), wk =   0.0096000
        k(   51) = (   0.0400000   0.0692820   0.0000000), wk =   0.0048000
        k(   52) = (   0.0400000   0.0923760   0.0000000), wk =   0.0096000
        k(   53) = (   0.0400000   0.1154701   0.0000000), wk =   0.0096000
        k(   54) = (   0.0400000   0.1385641   0.0000000), wk =   0.0096000
        k(   55) = (   0.0400000   0.1616581   0.0000000), wk =   0.0096000
        k(   56) = (   0.0400000   0.1847521   0.0000000), wk =   0.0096000
        k(   57) = (   0.0400000   0.2078461   0.0000000), wk =   0.0096000
        k(   58) = (   0.0400000   0.2309401   0.0000000), wk =   0.0096000
        k(   59) = (   0.0400000   0.2540341   0.0000000), wk =   0.0096000
        k(   60) = (   0.0400000   0.2771281   0.0000000), wk =   0.0096000
        k(   61) = (   0.0400000   0.3002221   0.0000000), wk =   0.0096000
        k(   62) = (   0.0400000   0.3233162   0.0000000), wk =   0.0096000
        k(   63) = (   0.0400000   0.3464102   0.0000000), wk =   0.0096000
        k(   64) = (   0.0400000   0.3695042   0.0000000), wk =   0.0096000
        k(   65) = (   0.0400000   0.3925982   0.0000000), wk =   0.0096000
        k(   66) = (   0.0400000   0.4156922   0.0000000), wk =   0.0096000
        k(   67) = (   0.0400000   0.4387862   0.0000000), wk =   0.0096000
        k(   68) = (   0.0400000   0.4618802   0.0000000), wk =   0.0096000
        k(   69) = (   0.0400000   0.4849742   0.0000000), wk =   0.0096000
        k(   70) = (   0.0400000   0.5080682   0.0000000), wk =   0.0096000
        k(   71) = (   0.0400000   0.5311622   0.0000000), wk =   0.0096000
        k(   72) = (   0.0400000   0.5542563   0.0000000), wk =   0.0096000
        k(   73) = (   0.0400000   0.5773503   0.0000000), wk =   0.0048000
        k(   74) = (   0.0600000   0.1039230   0.0000000), wk =   0.0048000
        k(   75) = (   0.0600000   0.1270171   0.0000000), wk =   0.0096000
        k(   76) = (   0.0600000   0.1501111   0.0000000), wk =   0.0096000
        k(   77) = (   0.0600000   0.1732051   0.0000000), wk =   0.0096000
        k(   78) = (   0.0600000   0.1962991   0.0000000), wk =   0.0096000
        k(   79) = (   0.0600000   0.2193931   0.0000000), wk =   0.0096000
        k(   80) = (   0.0600000   0.2424871   0.0000000), wk =   0.0096000
        k(   81) = (   0.0600000   0.2655811   0.0000000), wk =   0.0096000
        k(   82) = (   0.0600000   0.2886751   0.0000000), wk =   0.0096000
        k(   83) = (   0.0600000   0.3117691   0.0000000), wk =   0.0096000
        k(   84) = (   0.0600000   0.3348632   0.0000000), wk =   0.0096000
        k(   85) = (   0.0600000   0.3579572   0.0000000), wk =   0.0096000
        k(   86) = (   0.0600000   0.3810512   0.0000000), wk =   0.0096000
        k(   87) = (   0.0600000   0.4041452   0.0000000), wk =   0.0096000
        k(   88) = (   0.0600000   0.4272392   0.0000000), wk =   0.0096000
        k(   89) = (   0.0600000   0.4503332   0.0000000), wk =   0.0096000
        k(   90) = (   0.0600000   0.4734272   0.0000000), wk =   0.0096000
        k(   91) = (   0.0600000   0.4965212   0.0000000), wk =   0.0096000
        k(   92) = (   0.0600000   0.5196152   0.0000000), wk =   0.0096000
        k(   93) = (   0.0600000   0.5427093   0.0000000), wk =   0.0096000
        k(   94) = (   0.0600000   0.5658033   0.0000000), wk =   0.0096000
        k(   95) = (   0.0800000   0.1385641   0.0000000), wk =   0.0048000
        k(   96) = (   0.0800000   0.1616581   0.0000000), wk =   0.0096000
        k(   97) = (   0.0800000   0.1847521   0.0000000), wk =   0.0096000
        k(   98) = (   0.0800000   0.2078461   0.0000000), wk =   0.0096000
        k(   99) = (   0.0800000   0.2309401   0.0000000), wk =   0.0096000
        k(  100) = (   0.0800000   0.2540341   0.0000000), wk =   0.0096000
        k(  101) = (   0.0800000   0.2771281   0.0000000), wk =   0.0096000
        k(  102) = (   0.0800000   0.3002221   0.0000000), wk =   0.0096000
        k(  103) = (   0.0800000   0.3233162   0.0000000), wk =   0.0096000
        k(  104) = (   0.0800000   0.3464102   0.0000000), wk =   0.0096000
        k(  105) = (   0.0800000   0.3695042   0.0000000), wk =   0.0096000
        k(  106) = (   0.0800000   0.3925982   0.0000000), wk =   0.0096000
        k(  107) = (   0.0800000   0.4156922   0.0000000), wk =   0.0096000
        k(  108) = (   0.0800000   0.4387862   0.0000000), wk =   0.0096000
        k(  109) = (   0.0800000   0.4618802   0.0000000), wk =   0.0096000
        k(  110) = (   0.0800000   0.4849742   0.0000000), wk =   0.0096000
        k(  111) = (   0.0800000   0.5080682   0.0000000), wk =   0.0096000
        k(  112) = (   0.0800000   0.5311622   0.0000000), wk =   0.0096000
        k(  113) = (   0.0800000   0.5542563   0.0000000), wk =   0.0096000
        k(  114) = (   0.0800000   0.5773503   0.0000000), wk =   0.0048000
        k(  115) = (   0.1000000   0.1732051   0.0000000), wk =   0.0048000
        k(  116) = (   0.1000000   0.1962991   0.0000000), wk =   0.0096000
        k(  117) = (   0.1000000   0.2193931   0.0000000), wk =   0.0096000
        k(  118) = (   0.1000000   0.2424871   0.0000000), wk =   0.0096000
        k(  119) = (   0.1000000   0.2655811   0.0000000), wk =   0.0096000
        k(  120) = (   0.1000000   0.2886751   0.0000000), wk =   0.0096000
        k(  121) = (   0.1000000   0.3117691   0.0000000), wk =   0.0096000
        k(  122) = (   0.1000000   0.3348632   0.0000000), wk =   0.0096000
        k(  123) = (   0.1000000   0.3579572   0.0000000), wk =   0.0096000
        k(  124) = (   0.1000000   0.3810512   0.0000000), wk =   0.0096000
        k(  125) = (   0.1000000   0.4041452   0.0000000), wk =   0.0096000
        k(  126) = (   0.1000000   0.4272392   0.0000000), wk =   0.0096000
        k(  127) = (   0.1000000   0.4503332   0.0000000), wk =   0.0096000
        k(  128) = (   0.1000000   0.4734272   0.0000000), wk =   0.0096000
        k(  129) = (   0.1000000   0.4965212   0.0000000), wk =   0.0096000
        k(  130) = (   0.1000000   0.5196152   0.0000000), wk =   0.0096000
        k(  131) = (   0.1000000   0.5427093   0.0000000), wk =   0.0096000
        k(  132) = (   0.1000000   0.5658033   0.0000000), wk =   0.0096000
        k(  133) = (   0.1200000   0.2078461   0.0000000), wk =   0.0048000
        k(  134) = (   0.1200000   0.2309401   0.0000000), wk =   0.0096000
        k(  135) = (   0.1200000   0.2540341   0.0000000), wk =   0.0096000
        k(  136) = (   0.1200000   0.2771281   0.0000000), wk =   0.0096000
        k(  137) = (   0.1200000   0.3002221   0.0000000), wk =   0.0096000
        k(  138) = (   0.1200000   0.3233162   0.0000000), wk =   0.0096000
        k(  139) = (   0.1200000   0.3464102   0.0000000), wk =   0.0096000
        k(  140) = (   0.1200000   0.3695042   0.0000000), wk =   0.0096000
        k(  141) = (   0.1200000   0.3925982   0.0000000), wk =   0.0096000
        k(  142) = (   0.1200000   0.4156922   0.0000000), wk =   0.0096000
        k(  143) = (   0.1200000   0.4387862   0.0000000), wk =   0.0096000
        k(  144) = (   0.1200000   0.4618802   0.0000000), wk =   0.0096000
        k(  145) = (   0.1200000   0.4849742   0.0000000), wk =   0.0096000
        k(  146) = (   0.1200000   0.5080682   0.0000000), wk =   0.0096000
        k(  147) = (   0.1200000   0.5311622   0.0000000), wk =   0.0096000
        k(  148) = (   0.1200000   0.5542563   0.0000000), wk =   0.0096000
        k(  149) = (   0.1200000   0.5773503   0.0000000), wk =   0.0048000
        k(  150) = (   0.1400000   0.2424871   0.0000000), wk =   0.0048000
        k(  151) = (   0.1400000   0.2655811   0.0000000), wk =   0.0096000
        k(  152) = (   0.1400000   0.2886751   0.0000000), wk =   0.0096000
        k(  153) = (   0.1400000   0.3117691   0.0000000), wk =   0.0096000
        k(  154) = (   0.1400000   0.3348632   0.0000000), wk =   0.0096000
        k(  155) = (   0.1400000   0.3579572   0.0000000), wk =   0.0096000
        k(  156) = (   0.1400000   0.3810512   0.0000000), wk =   0.0096000
        k(  157) = (   0.1400000   0.4041452   0.0000000), wk =   0.0096000
        k(  158) = (   0.1400000   0.4272392   0.0000000), wk =   0.0096000
        k(  159) = (   0.1400000   0.4503332   0.0000000), wk =   0.0096000
        k(  160) = (   0.1400000   0.4734272   0.0000000), wk =   0.0096000
        k(  161) = (   0.1400000   0.4965212   0.0000000), wk =   0.0096000
        k(  162) = (   0.1400000   0.5196152   0.0000000), wk =   0.0096000
        k(  163) = (   0.1400000   0.5427093   0.0000000), wk =   0.0096000
        k(  164) = (   0.1400000   0.5658033   0.0000000), wk =   0.0096000
        k(  165) = (   0.1600000   0.2771281   0.0000000), wk =   0.0048000
        k(  166) = (   0.1600000   0.3002221   0.0000000), wk =   0.0096000
        k(  167) = (   0.1600000   0.3233162   0.0000000), wk =   0.0096000
        k(  168) = (   0.1600000   0.3464102   0.0000000), wk =   0.0096000
        k(  169) = (   0.1600000   0.3695042   0.0000000), wk =   0.0096000
        k(  170) = (   0.1600000   0.3925982   0.0000000), wk =   0.0096000
        k(  171) = (   0.1600000   0.4156922   0.0000000), wk =   0.0096000
        k(  172) = (   0.1600000   0.4387862   0.0000000), wk =   0.0096000
        k(  173) = (   0.1600000   0.4618802   0.0000000), wk =   0.0096000
        k(  174) = (   0.1600000   0.4849742   0.0000000), wk =   0.0096000
        k(  175) = (   0.1600000   0.5080682   0.0000000), wk =   0.0096000
        k(  176) = (   0.1600000   0.5311622   0.0000000), wk =   0.0096000
        k(  177) = (   0.1600000   0.5542563   0.0000000), wk =   0.0096000
        k(  178) = (   0.1600000   0.5773503   0.0000000), wk =   0.0048000
        k(  179) = (   0.1800000   0.3117691   0.0000000), wk =   0.0048000
        k(  180) = (   0.1800000   0.3348632   0.0000000), wk =   0.0096000
        k(  181) = (   0.1800000   0.3579572   0.0000000), wk =   0.0096000
        k(  182) = (   0.1800000   0.3810512   0.0000000), wk =   0.0096000
        k(  183) = (   0.1800000   0.4041452   0.0000000), wk =   0.0096000
        k(  184) = (   0.1800000   0.4272392   0.0000000), wk =   0.0096000
        k(  185) = (   0.1800000   0.4503332   0.0000000), wk =   0.0096000
        k(  186) = (   0.1800000   0.4734272   0.0000000), wk =   0.0096000
        k(  187) = (   0.1800000   0.4965212   0.0000000), wk =   0.0096000
        k(  188) = (   0.1800000   0.5196152   0.0000000), wk =   0.0096000
        k(  189) = (   0.1800000   0.5427093   0.0000000), wk =   0.0096000
        k(  190) = (   0.1800000   0.5658033   0.0000000), wk =   0.0096000
        k(  191) = (   0.2000000   0.3464102   0.0000000), wk =   0.0048000
        k(  192) = (   0.2000000   0.3695042   0.0000000), wk =   0.0096000
        k(  193) = (   0.2000000   0.3925982   0.0000000), wk =   0.0096000
        k(  194) = (   0.2000000   0.4156922   0.0000000), wk =   0.0096000
        k(  195) = (   0.2000000   0.4387862   0.0000000), wk =   0.0096000
        k(  196) = (   0.2000000   0.4618802   0.0000000), wk =   0.0096000
        k(  197) = (   0.2000000   0.4849742   0.0000000), wk =   0.0096000
        k(  198) = (   0.2000000   0.5080682   0.0000000), wk =   0.0096000
        k(  199) = (   0.2000000   0.5311622   0.0000000), wk =   0.0096000
        k(  200) = (   0.2000000   0.5542563   0.0000000), wk =   0.0096000
        k(  201) = (   0.2000000   0.5773503   0.0000000), wk =   0.0048000
        k(  202) = (   0.2200000   0.3810512   0.0000000), wk =   0.0048000
        k(  203) = (   0.2200000   0.4041452   0.0000000), wk =   0.0096000
        k(  204) = (   0.2200000   0.4272392   0.0000000), wk =   0.0096000
        k(  205) = (   0.2200000   0.4503332   0.0000000), wk =   0.0096000
        k(  206) = (   0.2200000   0.4734272   0.0000000), wk =   0.0096000
        k(  207) = (   0.2200000   0.4965212   0.0000000), wk =   0.0096000
        k(  208) = (   0.2200000   0.5196152   0.0000000), wk =   0.0096000
        k(  209) = (   0.2200000   0.5427093   0.0000000), wk =   0.0096000
        k(  210) = (   0.2200000   0.5658033   0.0000000), wk =   0.0096000
        k(  211) = (   0.2400000   0.4156922   0.0000000), wk =   0.0048000
        k(  212) = (   0.2400000   0.4387862   0.0000000), wk =   0.0096000
        k(  213) = (   0.2400000   0.4618802   0.0000000), wk =   0.0096000
        k(  214) = (   0.2400000   0.4849742   0.0000000), wk =   0.0096000
        k(  215) = (   0.2400000   0.5080682   0.0000000), wk =   0.0096000
        k(  216) = (   0.2400000   0.5311622   0.0000000), wk =   0.0096000
        k(  217) = (   0.2400000   0.5542563   0.0000000), wk =   0.0096000
        k(  218) = (   0.2400000   0.5773503   0.0000000), wk =   0.0048000
        k(  219) = (   0.2600000   0.4503332   0.0000000), wk =   0.0048000
        k(  220) = (   0.2600000   0.4734272   0.0000000), wk =   0.0096000
        k(  221) = (   0.2600000   0.4965212   0.0000000), wk =   0.0096000
        k(  222) = (   0.2600000   0.5196152   0.0000000), wk =   0.0096000
        k(  223) = (   0.2600000   0.5427093   0.0000000), wk =   0.0096000
        k(  224) = (   0.2600000   0.5658033   0.0000000), wk =   0.0096000
        k(  225) = (   0.2800000   0.4849742   0.0000000), wk =   0.0048000
        k(  226) = (   0.2800000   0.5080682   0.0000000), wk =   0.0096000
        k(  227) = (   0.2800000   0.5311622   0.0000000), wk =   0.0096000
        k(  228) = (   0.2800000   0.5542563   0.0000000), wk =   0.0096000
        k(  229) = (   0.2800000   0.5773503   0.0000000), wk =   0.0048000
        k(  230) = (   0.3000000   0.5196152   0.0000000), wk =   0.0048000
        k(  231) = (   0.3000000   0.5427093   0.0000000), wk =   0.0096000
        k(  232) = (   0.3000000   0.5658033   0.0000000), wk =   0.0096000
        k(  233) = (   0.3200000   0.5542563   0.0000000), wk =   0.0048000
        k(  234) = (   0.3200000   0.5773503   0.0000000), wk =   0.0048000

                       cryst. coord.
        k(    1) = (   0.0000000   0.0000000   0.0000000), wk =   0.0008000
        k(    2) = (   0.0000000   0.0200000   0.0000000), wk =   0.0048000
        k(    3) = (   0.0000000   0.0400000   0.0000000), wk =   0.0048000
        k(    4) = (   0.0000000   0.0600000   0.0000000), wk =   0.0048000
        k(    5) = (   0.0000000   0.0800000   0.0000000), wk =   0.0048000
        k(    6) = (   0.0000000   0.1000000   0.0000000), wk =   0.0048000
        k(    7) = (   0.0000000   0.1200000   0.0000000), wk =   0.0048000
        k(    8) = (   0.0000000   0.1400000   0.0000000), wk =   0.0048000
        k(    9) = (   0.0000000   0.1600000   0.0000000), wk =   0.0048000
        k(   10) = (   0.0000000   0.1800000   0.0000000), wk =   0.0048000
        k(   11) = (   0.0000000   0.2000000   0.0000000), wk =   0.0048000
        k(   12) = (   0.0000000   0.2200000   0.0000000), wk =   0.0048000
        k(   13) = (   0.0000000   0.2400000   0.0000000), wk =   0.0048000
        k(   14) = (   0.0000000   0.2600000   0.0000000), wk =   0.0048000
        k(   15) = (   0.0000000   0.2800000   0.0000000), wk =   0.0048000
        k(   16) = (   0.0000000   0.3000000   0.0000000), wk =   0.0048000
        k(   17) = (   0.0000000   0.3200000   0.0000000), wk =   0.0048000
        k(   18) = (   0.0000000   0.3400000   0.0000000), wk =   0.0048000
        k(   19) = (   0.0000000   0.3600000   0.0000000), wk =   0.0048000
        k(   20) = (   0.0000000   0.3800000   0.0000000), wk =   0.0048000
        k(   21) = (   0.0000000   0.4000000   0.0000000), wk =   0.0048000
        k(   22) = (   0.0000000   0.4200000   0.0000000), wk =   0.0048000
        k(   23) = (   0.0000000   0.4400000   0.0000000), wk =   0.0048000
        k(   24) = (   0.0000000   0.4600000   0.0000000), wk =   0.0048000
        k(   25) = (   0.0000000   0.4800000   0.0000000), wk =   0.0048000
        k(   26) = (   0.0000000  -0.5000000   0.0000000), wk =   0.0024000
        k(   27) = (   0.0200000   0.0200000   0.0000000), wk =   0.0048000
        k(   28) = (   0.0200000   0.0400000   0.0000000), wk =   0.0096000
        k(   29) = (   0.0200000   0.0600000   0.0000000), wk =   0.0096000
        k(   30) = (   0.0200000   0.0800000   0.0000000), wk =   0.0096000
        k(   31) = (   0.0200000   0.1000000   0.0000000), wk =   0.0096000
        k(   32) = (   0.0200000   0.1200000   0.0000000), wk =   0.0096000
        k(   33) = (   0.0200000   0.1400000   0.0000000), wk =   0.0096000
        k(   34) = (   0.0200000   0.1600000   0.0000000), wk =   0.0096000
        k(   35) = (   0.0200000   0.1800000   0.0000000), wk =   0.0096000
        k(   36) = (   0.0200000   0.2000000   0.0000000), wk =   0.0096000
        k(   37) = (   0.0200000   0.2200000   0.0000000), wk =   0.0096000
        k(   38) = (   0.0200000   0.2400000   0.0000000), wk =   0.0096000
        k(   39) = (   0.0200000   0.2600000   0.0000000), wk =   0.0096000
        k(   40) = (   0.0200000   0.2800000   0.0000000), wk =   0.0096000
        k(   41) = (   0.0200000   0.3000000   0.0000000), wk =   0.0096000
        k(   42) = (   0.0200000   0.3200000   0.0000000), wk =   0.0096000
        k(   43) = (   0.0200000   0.3400000   0.0000000), wk =   0.0096000
        k(   44) = (   0.0200000   0.3600000   0.0000000), wk =   0.0096000
        k(   45) = (   0.0200000   0.3800000   0.0000000), wk =   0.0096000
        k(   46) = (   0.0200000   0.4000000   0.0000000), wk =   0.0096000
        k(   47) = (   0.0200000   0.4200000   0.0000000), wk =   0.0096000
        k(   48) = (   0.0200000   0.4400000   0.0000000), wk =   0.0096000
        k(   49) = (   0.0200000   0.4600000   0.0000000), wk =   0.0096000
        k(   50) = (   0.0200000   0.4800000   0.0000000), wk =   0.0096000
        k(   51) = (   0.0400000   0.0400000   0.0000000), wk =   0.0048000
        k(   52) = (   0.0400000   0.0600000   0.0000000), wk =   0.0096000
        k(   53) = (   0.0400000   0.0800000   0.0000000), wk =   0.0096000
        k(   54) = (   0.0400000   0.1000000   0.0000000), wk =   0.0096000
        k(   55) = (   0.0400000   0.1200000   0.0000000), wk =   0.0096000
        k(   56) = (   0.0400000   0.1400000   0.0000000), wk =   0.0096000
        k(   57) = (   0.0400000   0.1600000   0.0000000), wk =   0.0096000
        k(   58) = (   0.0400000   0.1800000   0.0000000), wk =   0.0096000
        k(   59) = (   0.0400000   0.2000000   0.0000000), wk =   0.0096000
        k(   60) = (   0.0400000   0.2200000   0.0000000), wk =   0.0096000
        k(   61) = (   0.0400000   0.2400000   0.0000000), wk =   0.0096000
        k(   62) = (   0.0400000   0.2600000   0.0000000), wk =   0.0096000
        k(   63) = (   0.0400000   0.2800000   0.0000000), wk =   0.0096000
        k(   64) = (   0.0400000   0.3000000   0.0000000), wk =   0.0096000
        k(   65) = (   0.0400000   0.3200000   0.0000000), wk =   0.0096000
        k(   66) = (   0.0400000   0.3400000   0.0000000), wk =   0.0096000
        k(   67) = (   0.0400000   0.3600000   0.0000000), wk =   0.0096000
        k(   68) = (   0.0400000   0.3800000   0.0000000), wk =   0.0096000
        k(   69) = (   0.0400000   0.4000000   0.0000000), wk =   0.0096000
        k(   70) = (   0.0400000   0.4200000   0.0000000), wk =   0.0096000
        k(   71) = (   0.0400000   0.4400000   0.0000000), wk =   0.0096000
        k(   72) = (   0.0400000   0.4600000   0.0000000), wk =   0.0096000
        k(   73) = (   0.0400000   0.4800000   0.0000000), wk =   0.0048000
        k(   74) = (   0.0600000   0.0600000   0.0000000), wk =   0.0048000
        k(   75) = (   0.0600000   0.0800000   0.0000000), wk =   0.0096000
        k(   76) = (   0.0600000   0.1000000   0.0000000), wk =   0.0096000
        k(   77) = (   0.0600000   0.1200000   0.0000000), wk =   0.0096000
        k(   78) = (   0.0600000   0.1400000   0.0000000), wk =   0.0096000
        k(   79) = (   0.0600000   0.1600000   0.0000000), wk =   0.0096000
        k(   80) = (   0.0600000   0.1800000   0.0000000), wk =   0.0096000
        k(   81) = (   0.0600000   0.2000000   0.0000000), wk =   0.0096000
        k(   82) = (   0.0600000   0.2200000   0.0000000), wk =   0.0096000
        k(   83) = (   0.0600000   0.2400000   0.0000000), wk =   0.0096000
        k(   84) = (   0.0600000   0.2600000   0.0000000), wk =   0.0096000
        k(   85) = (   0.0600000   0.2800000   0.0000000), wk =   0.0096000
        k(   86) = (   0.0600000   0.3000000   0.0000000), wk =   0.0096000
        k(   87) = (   0.0600000   0.3200000   0.0000000), wk =   0.0096000
        k(   88) = (   0.0600000   0.3400000   0.0000000), wk =   0.0096000
        k(   89) = (   0.0600000   0.3600000   0.0000000), wk =   0.0096000
        k(   90) = (   0.0600000   0.3800000   0.0000000), wk =   0.0096000
        k(   91) = (   0.0600000   0.4000000   0.0000000), wk =   0.0096000
        k(   92) = (   0.0600000   0.4200000   0.0000000), wk =   0.0096000
        k(   93) = (   0.0600000   0.4400000   0.0000000), wk =   0.0096000
        k(   94) = (   0.0600000   0.4600000   0.0000000), wk =   0.0096000
        k(   95) = (   0.0800000   0.0800000   0.0000000), wk =   0.0048000
        k(   96) = (   0.0800000   0.1000000   0.0000000), wk =   0.0096000
        k(   97) = (   0.0800000   0.1200000   0.0000000), wk =   0.0096000
        k(   98) = (   0.0800000   0.1400000   0.0000000), wk =   0.0096000
        k(   99) = (   0.0800000   0.1600000   0.0000000), wk =   0.0096000
        k(  100) = (   0.0800000   0.1800000   0.0000000), wk =   0.0096000
        k(  101) = (   0.0800000   0.2000000   0.0000000), wk =   0.0096000
        k(  102) = (   0.0800000   0.2200000   0.0000000), wk =   0.0096000
        k(  103) = (   0.0800000   0.2400000   0.0000000), wk =   0.0096000
        k(  104) = (   0.0800000   0.2600000   0.0000000), wk =   0.0096000
        k(  105) = (   0.0800000   0.2800000   0.0000000), wk =   0.0096000
        k(  106) = (   0.0800000   0.3000000   0.0000000), wk =   0.0096000
        k(  107) = (   0.0800000   0.3200000   0.0000000), wk =   0.0096000
        k(  108) = (   0.0800000   0.3400000   0.0000000), wk =   0.0096000
        k(  109) = (   0.0800000   0.3600000   0.0000000), wk =   0.0096000
        k(  110) = (   0.0800000   0.3800000   0.0000000), wk =   0.0096000
        k(  111) = (   0.0800000   0.4000000   0.0000000), wk =   0.0096000
        k(  112) = (   0.0800000   0.4200000   0.0000000), wk =   0.0096000
        k(  113) = (   0.0800000   0.4400000   0.0000000), wk =   0.0096000
        k(  114) = (   0.0800000   0.4600000   0.0000000), wk =   0.0048000
        k(  115) = (   0.1000000   0.1000000   0.0000000), wk =   0.0048000
        k(  116) = (   0.1000000   0.1200000   0.0000000), wk =   0.0096000
        k(  117) = (   0.1000000   0.1400000   0.0000000), wk =   0.0096000
        k(  118) = (   0.1000000   0.1600000   0.0000000), wk =   0.0096000
        k(  119) = (   0.1000000   0.1800000   0.0000000), wk =   0.0096000
        k(  120) = (   0.1000000   0.2000000   0.0000000), wk =   0.0096000
        k(  121) = (   0.1000000   0.2200000   0.0000000), wk =   0.0096000
        k(  122) = (   0.1000000   0.2400000   0.0000000), wk =   0.0096000
        k(  123) = (   0.1000000   0.2600000   0.0000000), wk =   0.0096000
        k(  124) = (   0.1000000   0.2800000   0.0000000), wk =   0.0096000
        k(  125) = (   0.1000000   0.3000000   0.0000000), wk =   0.0096000
        k(  126) = (   0.1000000   0.3200000   0.0000000), wk =   0.0096000
        k(  127) = (   0.1000000   0.3400000   0.0000000), wk =   0.0096000
        k(  128) = (   0.1000000   0.3600000   0.0000000), wk =   0.0096000
        k(  129) = (   0.1000000   0.3800000   0.0000000), wk =   0.0096000
        k(  130) = (   0.1000000   0.4000000   0.0000000), wk =   0.0096000
        k(  131) = (   0.1000000   0.4200000   0.0000000), wk =   0.0096000
        k(  132) = (   0.1000000   0.4400000   0.0000000), wk =   0.0096000
        k(  133) = (   0.1200000   0.1200000   0.0000000), wk =   0.0048000
        k(  134) = (   0.1200000   0.1400000   0.0000000), wk =   0.0096000
        k(  135) = (   0.1200000   0.1600000   0.0000000), wk =   0.0096000
        k(  136) = (   0.1200000   0.1800000   0.0000000), wk =   0.0096000
        k(  137) = (   0.1200000   0.2000000   0.0000000), wk =   0.0096000
        k(  138) = (   0.1200000   0.2200000   0.0000000), wk =   0.0096000
        k(  139) = (   0.1200000   0.2400000   0.0000000), wk =   0.0096000
        k(  140) = (   0.1200000   0.2600000   0.0000000), wk =   0.0096000
        k(  141) = (   0.1200000   0.2800000   0.0000000), wk =   0.0096000
        k(  142) = (   0.1200000   0.3000000   0.0000000), wk =   0.0096000
        k(  143) = (   0.1200000   0.3200000   0.0000000), wk =   0.0096000
        k(  144) = (   0.1200000   0.3400000   0.0000000), wk =   0.0096000
        k(  145) = (   0.1200000   0.3600000   0.0000000), wk =   0.0096000
        k(  146) = (   0.1200000   0.3800000   0.0000000), wk =   0.0096000
        k(  147) = (   0.1200000   0.4000000   0.0000000), wk =   0.0096000
        k(  148) = (   0.1200000   0.4200000   0.0000000), wk =   0.0096000
        k(  149) = (   0.1200000   0.4400000   0.0000000), wk =   0.0048000
        k(  150) = (   0.1400000   0.1400000   0.0000000), wk =   0.0048000
        k(  151) = (   0.1400000   0.1600000   0.0000000), wk =   0.0096000
        k(  152) = (   0.1400000   0.1800000   0.0000000), wk =   0.0096000
        k(  153) = (   0.1400000   0.2000000   0.0000000), wk =   0.0096000
        k(  154) = (   0.1400000   0.2200000   0.0000000), wk =   0.0096000
        k(  155) = (   0.1400000   0.2400000   0.0000000), wk =   0.0096000
        k(  156) = (   0.1400000   0.2600000   0.0000000), wk =   0.0096000
        k(  157) = (   0.1400000   0.2800000   0.0000000), wk =   0.0096000
        k(  158) = (   0.1400000   0.3000000   0.0000000), wk =   0.0096000
        k(  159) = (   0.1400000   0.3200000   0.0000000), wk =   0.0096000
        k(  160) = (   0.1400000   0.3400000   0.0000000), wk =   0.0096000
        k(  161) = (   0.1400000   0.3600000   0.0000000), wk =   0.0096000
        k(  162) = (   0.1400000   0.3800000   0.0000000), wk =   0.0096000
        k(  163) = (   0.1400000   0.4000000   0.0000000), wk =   0.0096000
        k(  164) = (   0.1400000   0.4200000   0.0000000), wk =   0.0096000
        k(  165) = (   0.1600000   0.1600000   0.0000000), wk =   0.0048000
        k(  166) = (   0.1600000   0.1800000   0.0000000), wk =   0.0096000
        k(  167) = (   0.1600000   0.2000000   0.0000000), wk =   0.0096000
        k(  168) = (   0.1600000   0.2200000   0.0000000), wk =   0.0096000
        k(  169) = (   0.1600000   0.2400000   0.0000000), wk =   0.0096000
        k(  170) = (   0.1600000   0.2600000   0.0000000), wk =   0.0096000
        k(  171) = (   0.1600000   0.2800000   0.0000000), wk =   0.0096000
        k(  172) = (   0.1600000   0.3000000   0.0000000), wk =   0.0096000
        k(  173) = (   0.1600000   0.3200000   0.0000000), wk =   0.0096000
        k(  174) = (   0.1600000   0.3400000   0.0000000), wk =   0.0096000
        k(  175) = (   0.1600000   0.3600000   0.0000000), wk =   0.0096000
        k(  176) = (   0.1600000   0.3800000   0.0000000), wk =   0.0096000
        k(  177) = (   0.1600000   0.4000000   0.0000000), wk =   0.0096000
        k(  178) = (   0.1600000   0.4200000   0.0000000), wk =   0.0048000
        k(  179) = (   0.1800000   0.1800000   0.0000000), wk =   0.0048000
        k(  180) = (   0.1800000   0.2000000   0.0000000), wk =   0.0096000
        k(  181) = (   0.1800000   0.2200000   0.0000000), wk =   0.0096000
        k(  182) = (   0.1800000   0.2400000   0.0000000), wk =   0.0096000
        k(  183) = (   0.1800000   0.2600000   0.0000000), wk =   0.0096000
        k(  184) = (   0.1800000   0.2800000   0.0000000), wk =   0.0096000
        k(  185) = (   0.1800000   0.3000000   0.0000000), wk =   0.0096000
        k(  186) = (   0.1800000   0.3200000   0.0000000), wk =   0.0096000
        k(  187) = (   0.1800000   0.3400000   0.0000000), wk =   0.0096000
        k(  188) = (   0.1800000   0.3600000   0.0000000), wk =   0.0096000
        k(  189) = (   0.1800000   0.3800000   0.0000000), wk =   0.0096000
        k(  190) = (   0.1800000   0.4000000   0.0000000), wk =   0.0096000
        k(  191) = (   0.2000000   0.2000000   0.0000000), wk =   0.0048000
        k(  192) = (   0.2000000   0.2200000   0.0000000), wk =   0.0096000
        k(  193) = (   0.2000000   0.2400000   0.0000000), wk =   0.0096000
        k(  194) = (   0.2000000   0.2600000   0.0000000), wk =   0.0096000
        k(  195) = (   0.2000000   0.2800000   0.0000000), wk =   0.0096000
        k(  196) = (   0.2000000   0.3000000   0.0000000), wk =   0.0096000
        k(  197) = (   0.2000000   0.3200000   0.0000000), wk =   0.0096000
        k(  198) = (   0.2000000   0.3400000   0.0000000), wk =   0.0096000
        k(  199) = (   0.2000000   0.3600000   0.0000000), wk =   0.0096000
        k(  200) = (   0.2000000   0.3800000   0.0000000), wk =   0.0096000
        k(  201) = (   0.2000000   0.4000000   0.0000000), wk =   0.0048000
        k(  202) = (   0.2200000   0.2200000   0.0000000), wk =   0.0048000
        k(  203) = (   0.2200000   0.2400000   0.0000000), wk =   0.0096000
        k(  204) = (   0.2200000   0.2600000   0.0000000), wk =   0.0096000
        k(  205) = (   0.2200000   0.2800000   0.0000000), wk =   0.0096000
        k(  206) = (   0.2200000   0.3000000   0.0000000), wk =   0.0096000
        k(  207) = (   0.2200000   0.3200000   0.0000000), wk =   0.0096000
        k(  208) = (   0.2200000   0.3400000   0.0000000), wk =   0.0096000
        k(  209) = (   0.2200000   0.3600000   0.0000000), wk =   0.0096000
        k(  210) = (   0.2200000   0.3800000   0.0000000), wk =   0.0096000
        k(  211) = (   0.2400000   0.2400000   0.0000000), wk =   0.0048000
        k(  212) = (   0.2400000   0.2600000   0.0000000), wk =   0.0096000
        k(  213) = (   0.2400000   0.2800000   0.0000000), wk =   0.0096000
        k(  214) = (   0.2400000   0.3000000   0.0000000), wk =   0.0096000
        k(  215) = (   0.2400000   0.3200000   0.0000000), wk =   0.0096000
        k(  216) = (   0.2400000   0.3400000   0.0000000), wk =   0.0096000
        k(  217) = (   0.2400000   0.3600000   0.0000000), wk =   0.0096000
        k(  218) = (   0.2400000   0.3800000   0.0000000), wk =   0.0048000
        k(  219) = (   0.2600000   0.2600000   0.0000000), wk =   0.0048000
        k(  220) = (   0.2600000   0.2800000   0.0000000), wk =   0.0096000
        k(  221) = (   0.2600000   0.3000000   0.0000000), wk =   0.0096000
        k(  222) = (   0.2600000   0.3200000   0.0000000), wk =   0.0096000
        k(  223) = (   0.2600000   0.3400000   0.0000000), wk =   0.0096000
        k(  224) = (   0.2600000   0.3600000   0.0000000), wk =   0.0096000
        k(  225) = (   0.2800000   0.2800000   0.0000000), wk =   0.0048000
        k(  226) = (   0.2800000   0.3000000   0.0000000), wk =   0.0096000
        k(  227) = (   0.2800000   0.3200000   0.0000000), wk =   0.0096000
        k(  228) = (   0.2800000   0.3400000   0.0000000), wk =   0.0096000
        k(  229) = (   0.2800000   0.3600000   0.0000000), wk =   0.0048000
        k(  230) = (   0.3000000   0.3000000   0.0000000), wk =   0.0048000
        k(  231) = (   0.3000000   0.3200000   0.0000000), wk =   0.0096000
        k(  232) = (   0.3000000   0.3400000   0.0000000), wk =   0.0096000
        k(  233) = (   0.3200000   0.3200000   0.0000000), wk =   0.0048000
        k(  234) = (   0.3200000   0.3400000   0.0000000), wk =   0.0048000

     Dense  grid:    33185 G-vectors     FFT dimensions: (  24,  24, 144)

     Dynamical RAM for                 wfc:       0.08 MB

     Dynamical RAM for     wfc (w. buffer):       0.08 MB

     Dynamical RAM for           str. fact:       0.06 MB

     Dynamical RAM for           local pot:       0.00 MB

     Dynamical RAM for          nlocal pot:       0.13 MB

     Dynamical RAM for                qrad:       0.36 MB

     Dynamical RAM for          rho,v,vnew:       0.43 MB

     Dynamical RAM for           G-vectors:       0.27 MB

     Dynamical RAM for          h,s,v(r/c):       0.02 MB

     Dynamical RAM for          <psi|beta>:       0.00 MB

     Dynamical RAM for                 psi:       0.16 MB

     Dynamical RAM for                hpsi:       0.16 MB

     Dynamical RAM for      wfcinit/wfcrot:       0.16 MB

     Estimated static dynamical RAM per process >       1.84 MB

     Estimated max dynamical RAM per process >       2.18 MB

     Estimated total dynamical RAM >      17.43 MB

     The potential is recalculated from file :
     ./tmp50/graphene_PBE_vdW.save/charge-density



     %%%%%%%%%%%%%%%%%%%%%%%%%%%%%%%%%%%%%%%%%%%%%%%%%%%%%%%%%%%%%%%%%%%%%%%%
     %                                                                      %
     % You are using vdW-DF, which was implemented by the Thonhauser group. %
     % Please cite the following two papers that made this development      %
     % possible and the two reviews that describe the various versions:     %
     %                                                                      %
     %   T. Thonhauser et al., PRL 115, 136402 (2015).                      %
     %   T. Thonhauser et al., PRB 76, 125112 (2007).                       %
     %   K. Berland et al., Rep. Prog. Phys. 78, 066501 (2015).             %
     %   D.C. Langreth et al., J. Phys.: Condens. Matter 21, 084203 (2009). %
     %                                                                      %
     % If you are calculating stress with vdW-DF, please also cite:         %
     %                                                                      %
     %   R. Sabatini et al., J. Phys.: Condens. Matter 24, 424209 (2012).   %
     %                                                                      %
     %%%%%%%%%%%%%%%%%%%%%%%%%%%%%%%%%%%%%%%%%%%%%%%%%%%%%%%%%%%%%%%%%%%%%%%%

     %%%%%%%%%%%%%%%%%%%%%%%%%%%%%%%%%%%%%%%%%%%%%%%%%%%%%%%%%%%%%%%%%%%%%%%%
     %                                                                      %
     %  vdW-DF NEWS:                                                        %
     %                                                                      %
     %  * vdW-DF3 is now available. DOI: 10.1021/acs.jctc.0c00471           %
     %    use with input_dft = 'vdW-DF3-opt1' or 'vdW-DF3-opt2'             %
     %                                                                      %
     %  * Unscreened and range-separated hybrid vdW-DF-cx functionals       %
     %    DOI: 10.1063/1.4986522 and 10.1088/1361-648X/ac2ad2               %
     %    use with input_dft = 'vdW-DF-cx0'    and 'vdW-DF-ahcx'            %
     %  * Unscreened and range-separated hybrid vdW-DF2-b86r functionals    %
     %    DOI: 10.1063/1.4986522 and DOI: 10.1103/PhysRevX.12.041003        %
     %    use with input_dft = 'vdW-DF2-br0' and 'vdW-DF2-ahbr'             %
     %                                                                      %
     %%%%%%%%%%%%%%%%%%%%%%%%%%%%%%%%%%%%%%%%%%%%%%%%%%%%%%%%%%%%%%%%%%%%%%%%


     Carrying out vdW-DF run using the following parameters:
     Nqs    =  20  Npoints =  1024  r_max =  100.000
     q_mesh =  0.00001000  0.04494208  0.09755937  0.15916263
               0.23128650  0.31572767  0.41458969  0.53033537
               0.66584808  0.82450364  1.01025438  1.22772762
               1.48234092  1.78043706  2.12944203  2.53805004
               3.01644009  3.57652955  4.23227104  5.00000000


     -----------------------------------------------
     Non-local corr. energy    =       0.10399299 Ry
     -----------------------------------------------

     Starting wfcs are    8 randomized atomic wfcs +    2 random wfcs

     Band Structure Calculation
     Davidson diagonalization with overlap

     Computing kpt #:     1  of   234
     total cpu time spent up to now is        8.7 secs

     Computing kpt #:     2  of   234
     total cpu time spent up to now is        8.8 secs

     Computing kpt #:     3  of   234
     total cpu time spent up to now is        8.8 secs

     Computing kpt #:     4  of   234
     total cpu time spent up to now is        8.9 secs

     Computing kpt #:     5  of   234
     total cpu time spent up to now is        9.0 secs

     Computing kpt #:     6  of   234
     total cpu time spent up to now is        9.1 secs

     Computing kpt #:     7  of   234
     total cpu time spent up to now is        9.1 secs

     Computing kpt #:     8  of   234
     total cpu time spent up to now is        9.2 secs

     Computing kpt #:     9  of   234
     total cpu time spent up to now is        9.3 secs

     Computing kpt #:    10  of   234
     total cpu time spent up to now is        9.4 secs

     Computing kpt #:    11  of   234
     total cpu time spent up to now is        9.5 secs

     Computing kpt #:    12  of   234
     total cpu time spent up to now is        9.6 secs

     Computing kpt #:    13  of   234
     total cpu time spent up to now is        9.6 secs

     Computing kpt #:    14  of   234
     total cpu time spent up to now is        9.7 secs

     Computing kpt #:    15  of   234
     total cpu time spent up to now is        9.8 secs

     Computing kpt #:    16  of   234
     total cpu time spent up to now is        9.9 secs

     Computing kpt #:    17  of   234
     total cpu time spent up to now is        9.9 secs

     Computing kpt #:    18  of   234
     total cpu time spent up to now is       10.0 secs

     Computing kpt #:    19  of   234
     total cpu time spent up to now is       10.0 secs

     Computing kpt #:    20  of   234
     total cpu time spent up to now is       10.1 secs

     Computing kpt #:    21  of   234
     total cpu time spent up to now is       10.1 secs

     Computing kpt #:    22  of   234
     total cpu time spent up to now is       10.2 secs

     Computing kpt #:    23  of   234
     total cpu time spent up to now is       10.3 secs

     Computing kpt #:    24  of   234
     total cpu time spent up to now is       10.3 secs

     Computing kpt #:    25  of   234
     total cpu time spent up to now is       10.4 secs

     Computing kpt #:    26  of   234
     total cpu time spent up to now is       10.4 secs

     Computing kpt #:    27  of   234
     total cpu time spent up to now is       10.5 secs

     Computing kpt #:    28  of   234
     total cpu time spent up to now is       10.5 secs

     Computing kpt #:    29  of   234
     total cpu time spent up to now is       10.6 secs

     Computing kpt #:    30  of   234
     total cpu time spent up to now is       10.7 secs

     Computing kpt #:    31  of   234
     total cpu time spent up to now is       10.8 secs

     Computing kpt #:    32  of   234
     total cpu time spent up to now is       10.8 secs

     Computing kpt #:    33  of   234
     total cpu time spent up to now is       10.9 secs

     Computing kpt #:    34  of   234
     total cpu time spent up to now is       11.0 secs

     Computing kpt #:    35  of   234
     total cpu time spent up to now is       11.1 secs

     Computing kpt #:    36  of   234
     total cpu time spent up to now is       11.1 secs

     Computing kpt #:    37  of   234
     total cpu time spent up to now is       11.2 secs

     Computing kpt #:    38  of   234
     total cpu time spent up to now is       11.3 secs

     Computing kpt #:    39  of   234
     total cpu time spent up to now is       11.4 secs

     Computing kpt #:    40  of   234
     total cpu time spent up to now is       11.4 secs

     Computing kpt #:    41  of   234
     total cpu time spent up to now is       11.5 secs

     Computing kpt #:    42  of   234
     total cpu time spent up to now is       11.6 secs

     Computing kpt #:    43  of   234
     total cpu time spent up to now is       11.6 secs

     Computing kpt #:    44  of   234
     total cpu time spent up to now is       11.7 secs

     Computing kpt #:    45  of   234
     total cpu time spent up to now is       11.7 secs

     Computing kpt #:    46  of   234
     total cpu time spent up to now is       11.8 secs

     Computing kpt #:    47  of   234
     total cpu time spent up to now is       11.9 secs

     Computing kpt #:    48  of   234
     total cpu time spent up to now is       11.9 secs

     Computing kpt #:    49  of   234
     total cpu time spent up to now is       12.0 secs

     Computing kpt #:    50  of   234
     total cpu time spent up to now is       12.1 secs

     Computing kpt #:    51  of   234
     total cpu time spent up to now is       12.2 secs

     Computing kpt #:    52  of   234
     total cpu time spent up to now is       12.2 secs

     Computing kpt #:    53  of   234
     total cpu time spent up to now is       12.3 secs

     Computing kpt #:    54  of   234
     total cpu time spent up to now is       12.4 secs

     Computing kpt #:    55  of   234
     total cpu time spent up to now is       12.5 secs

     Computing kpt #:    56  of   234
     total cpu time spent up to now is       12.5 secs

     Computing kpt #:    57  of   234
     total cpu time spent up to now is       12.6 secs

     Computing kpt #:    58  of   234
     total cpu time spent up to now is       12.7 secs

     Computing kpt #:    59  of   234
     total cpu time spent up to now is       12.8 secs

     Computing kpt #:    60  of   234
     total cpu time spent up to now is       12.9 secs

     Computing kpt #:    61  of   234
     total cpu time spent up to now is       13.0 secs

     Computing kpt #:    62  of   234
     total cpu time spent up to now is       13.0 secs

     Computing kpt #:    63  of   234
     total cpu time spent up to now is       13.1 secs

     Computing kpt #:    64  of   234
     total cpu time spent up to now is       13.2 secs

     Computing kpt #:    65  of   234
     total cpu time spent up to now is       13.2 secs

     Computing kpt #:    66  of   234
     total cpu time spent up to now is       13.3 secs

     Computing kpt #:    67  of   234
     total cpu time spent up to now is       13.3 secs

     Computing kpt #:    68  of   234
     total cpu time spent up to now is       13.4 secs

     Computing kpt #:    69  of   234
     total cpu time spent up to now is       13.4 secs

     Computing kpt #:    70  of   234
     total cpu time spent up to now is       13.5 secs

     Computing kpt #:    71  of   234
     total cpu time spent up to now is       13.6 secs

     Computing kpt #:    72  of   234
     total cpu time spent up to now is       13.7 secs

     Computing kpt #:    73  of   234
     total cpu time spent up to now is       13.7 secs

     Computing kpt #:    74  of   234
     total cpu time spent up to now is       13.8 secs

     Computing kpt #:    75  of   234
     total cpu time spent up to now is       13.9 secs

     Computing kpt #:    76  of   234
     total cpu time spent up to now is       14.0 secs

     Computing kpt #:    77  of   234
     total cpu time spent up to now is       14.1 secs

     Computing kpt #:    78  of   234
     total cpu time spent up to now is       14.1 secs

     Computing kpt #:    79  of   234
     total cpu time spent up to now is       14.2 secs

     Computing kpt #:    80  of   234
     total cpu time spent up to now is       14.3 secs

     Computing kpt #:    81  of   234
     total cpu time spent up to now is       14.4 secs

     Computing kpt #:    82  of   234
     total cpu time spent up to now is       14.5 secs

     Computing kpt #:    83  of   234
     total cpu time spent up to now is       14.5 secs

     Computing kpt #:    84  of   234
     total cpu time spent up to now is       14.6 secs

     Computing kpt #:    85  of   234
     total cpu time spent up to now is       14.7 secs

     Computing kpt #:    86  of   234
     total cpu time spent up to now is       14.7 secs

     Computing kpt #:    87  of   234
     total cpu time spent up to now is       14.8 secs

     Computing kpt #:    88  of   234
     total cpu time spent up to now is       14.8 secs

     Computing kpt #:    89  of   234
     total cpu time spent up to now is       14.9 secs

     Computing kpt #:    90  of   234
     total cpu time spent up to now is       15.0 secs

     Computing kpt #:    91  of   234
     total cpu time spent up to now is       15.0 secs

     Computing kpt #:    92  of   234
     total cpu time spent up to now is       15.1 secs

     Computing kpt #:    93  of   234
     total cpu time spent up to now is       15.1 secs

     Computing kpt #:    94  of   234
     total cpu time spent up to now is       15.2 secs

     Computing kpt #:    95  of   234
     total cpu time spent up to now is       15.3 secs

     Computing kpt #:    96  of   234
     total cpu time spent up to now is       15.3 secs

     Computing kpt #:    97  of   234
     total cpu time spent up to now is       15.4 secs

     Computing kpt #:    98  of   234
     total cpu time spent up to now is       15.5 secs

     Computing kpt #:    99  of   234
     total cpu time spent up to now is       15.6 secs

     Computing kpt #:   100  of   234
     total cpu time spent up to now is       15.7 secs

     Computing kpt #:   101  of   234
     total cpu time spent up to now is       15.7 secs

     Computing kpt #:   102  of   234
     total cpu time spent up to now is       15.8 secs

     Computing kpt #:   103  of   234
     total cpu time spent up to now is       15.9 secs

     Computing kpt #:   104  of   234
     total cpu time spent up to now is       15.9 secs

     Computing kpt #:   105  of   234
     total cpu time spent up to now is       16.0 secs

     Computing kpt #:   106  of   234
     total cpu time spent up to now is       16.0 secs

     Computing kpt #:   107  of   234
     total cpu time spent up to now is       16.1 secs

     Computing kpt #:   108  of   234
     total cpu time spent up to now is       16.1 secs

     Computing kpt #:   109  of   234
     total cpu time spent up to now is       16.2 secs

     Computing kpt #:   110  of   234
     total cpu time spent up to now is       16.3 secs

     Computing kpt #:   111  of   234
     total cpu time spent up to now is       16.4 secs

     Computing kpt #:   112  of   234
     total cpu time spent up to now is       16.4 secs

     Computing kpt #:   113  of   234
     total cpu time spent up to now is       16.5 secs

     Computing kpt #:   114  of   234
     total cpu time spent up to now is       16.5 secs

     Computing kpt #:   115  of   234
     total cpu time spent up to now is       16.6 secs

     Computing kpt #:   116  of   234
     total cpu time spent up to now is       16.7 secs

     Computing kpt #:   117  of   234
     total cpu time spent up to now is       16.8 secs

     Computing kpt #:   118  of   234
     total cpu time spent up to now is       16.8 secs

     Computing kpt #:   119  of   234
     total cpu time spent up to now is       16.9 secs

     Computing kpt #:   120  of   234
     total cpu time spent up to now is       17.0 secs

     Computing kpt #:   121  of   234
     total cpu time spent up to now is       17.1 secs

     Computing kpt #:   122  of   234
     total cpu time spent up to now is       17.1 secs

     Computing kpt #:   123  of   234
     total cpu time spent up to now is       17.2 secs

     Computing kpt #:   124  of   234
     total cpu time spent up to now is       17.2 secs

     Computing kpt #:   125  of   234
     total cpu time spent up to now is       17.3 secs

     Computing kpt #:   126  of   234
     total cpu time spent up to now is       17.4 secs

     Computing kpt #:   127  of   234
     total cpu time spent up to now is       17.4 secs

     Computing kpt #:   128  of   234
     total cpu time spent up to now is       17.5 secs

     Computing kpt #:   129  of   234
     total cpu time spent up to now is       17.6 secs

     Computing kpt #:   130  of   234
     total cpu time spent up to now is       17.6 secs

     Computing kpt #:   131  of   234
     total cpu time spent up to now is       17.7 secs

     Computing kpt #:   132  of   234
     total cpu time spent up to now is       17.7 secs

     Computing kpt #:   133  of   234
     total cpu time spent up to now is       17.8 secs

     Computing kpt #:   134  of   234
     total cpu time spent up to now is       17.9 secs

     Computing kpt #:   135  of   234
     total cpu time spent up to now is       17.9 secs

     Computing kpt #:   136  of   234
     total cpu time spent up to now is       18.0 secs

     Computing kpt #:   137  of   234
     total cpu time spent up to now is       18.1 secs

     Computing kpt #:   138  of   234
     total cpu time spent up to now is       18.2 secs

     Computing kpt #:   139  of   234
     total cpu time spent up to now is       18.2 secs

     Computing kpt #:   140  of   234
     total cpu time spent up to now is       18.2 secs

     Computing kpt #:   141  of   234
     total cpu time spent up to now is       18.3 secs

     Computing kpt #:   142  of   234
     total cpu time spent up to now is       18.4 secs

     Computing kpt #:   143  of   234
     total cpu time spent up to now is       18.4 secs

     Computing kpt #:   144  of   234
     total cpu time spent up to now is       18.5 secs

     Computing kpt #:   145  of   234
     total cpu time spent up to now is       18.5 secs

     Computing kpt #:   146  of   234
     total cpu time spent up to now is       18.6 secs

     Computing kpt #:   147  of   234
     total cpu time spent up to now is       18.7 secs

     Computing kpt #:   148  of   234
     total cpu time spent up to now is       18.7 secs

     Computing kpt #:   149  of   234
     total cpu time spent up to now is       18.8 secs

     Computing kpt #:   150  of   234
     total cpu time spent up to now is       18.8 secs

     Computing kpt #:   151  of   234
     total cpu time spent up to now is       18.9 secs

     Computing kpt #:   152  of   234
     total cpu time spent up to now is       19.0 secs

     Computing kpt #:   153  of   234
     total cpu time spent up to now is       19.0 secs

     Computing kpt #:   154  of   234
     total cpu time spent up to now is       19.1 secs

     Computing kpt #:   155  of   234
     total cpu time spent up to now is       19.1 secs

     Computing kpt #:   156  of   234
     total cpu time spent up to now is       19.2 secs

     Computing kpt #:   157  of   234
     total cpu time spent up to now is       19.2 secs

     Computing kpt #:   158  of   234
     total cpu time spent up to now is       19.3 secs

     Computing kpt #:   159  of   234
     total cpu time spent up to now is       19.3 secs

     Computing kpt #:   160  of   234
     total cpu time spent up to now is       19.4 secs

     Computing kpt #:   161  of   234
     total cpu time spent up to now is       19.4 secs

     Computing kpt #:   162  of   234
     total cpu time spent up to now is       19.5 secs

     Computing kpt #:   163  of   234
     total cpu time spent up to now is       19.6 secs

     Computing kpt #:   164  of   234
     total cpu time spent up to now is       19.7 secs

     Computing kpt #:   165  of   234
     total cpu time spent up to now is       19.7 secs

     Computing kpt #:   166  of   234
     total cpu time spent up to now is       19.8 secs

     Computing kpt #:   167  of   234
     total cpu time spent up to now is       19.8 secs

     Computing kpt #:   168  of   234
     total cpu time spent up to now is       19.8 secs

     Computing kpt #:   169  of   234
     total cpu time spent up to now is       19.9 secs

     Computing kpt #:   170  of   234
     total cpu time spent up to now is       19.9 secs

     Computing kpt #:   171  of   234
     total cpu time spent up to now is       20.0 secs

     Computing kpt #:   172  of   234
     total cpu time spent up to now is       20.0 secs

     Computing kpt #:   173  of   234
     total cpu time spent up to now is       20.1 secs

     Computing kpt #:   174  of   234
     total cpu time spent up to now is       20.1 secs

     Computing kpt #:   175  of   234
     total cpu time spent up to now is       20.2 secs

     Computing kpt #:   176  of   234
     total cpu time spent up to now is       20.3 secs

     Computing kpt #:   177  of   234
     total cpu time spent up to now is       20.4 secs

     Computing kpt #:   178  of   234
     total cpu time spent up to now is       20.4 secs

     Computing kpt #:   179  of   234
     total cpu time spent up to now is       20.5 secs

     Computing kpt #:   180  of   234
     total cpu time spent up to now is       20.5 secs

     Computing kpt #:   181  of   234
     total cpu time spent up to now is       20.6 secs

     Computing kpt #:   182  of   234
     total cpu time spent up to now is       20.6 secs

     Computing kpt #:   183  of   234
     total cpu time spent up to now is       20.7 secs

     Computing kpt #:   184  of   234
     total cpu time spent up to now is       20.8 secs

     Computing kpt #:   185  of   234
     total cpu time spent up to now is       20.8 secs

     Computing kpt #:   186  of   234
     total cpu time spent up to now is       20.9 secs

     Computing kpt #:   187  of   234
     total cpu time spent up to now is       21.0 secs

     Computing kpt #:   188  of   234
     total cpu time spent up to now is       21.0 secs

     Computing kpt #:   189  of   234
     total cpu time spent up to now is       21.1 secs

     Computing kpt #:   190  of   234
     total cpu time spent up to now is       21.1 secs

     Computing kpt #:   191  of   234
     total cpu time spent up to now is       21.2 secs

     Computing kpt #:   192  of   234
     total cpu time spent up to now is       21.3 secs

     Computing kpt #:   193  of   234
     total cpu time spent up to now is       21.3 secs

     Computing kpt #:   194  of   234
     total cpu time spent up to now is       21.4 secs

     Computing kpt #:   195  of   234
     total cpu time spent up to now is       21.5 secs

     Computing kpt #:   196  of   234
     total cpu time spent up to now is       21.5 secs

     Computing kpt #:   197  of   234
     total cpu time spent up to now is       21.6 secs

     Computing kpt #:   198  of   234
     total cpu time spent up to now is       21.7 secs

     Computing kpt #:   199  of   234
     total cpu time spent up to now is       21.7 secs

     Computing kpt #:   200  of   234
     total cpu time spent up to now is       21.8 secs

     Computing kpt #:   201  of   234
     total cpu time spent up to now is       21.9 secs

     Computing kpt #:   202  of   234
     total cpu time spent up to now is       21.9 secs

     Computing kpt #:   203  of   234
     total cpu time spent up to now is       22.0 secs

     Computing kpt #:   204  of   234
     total cpu time spent up to now is       22.1 secs

     Computing kpt #:   205  of   234
     total cpu time spent up to now is       22.2 secs

     Computing kpt #:   206  of   234
     total cpu time spent up to now is       22.2 secs

     Computing kpt #:   207  of   234
     total cpu time spent up to now is       22.3 secs

     Computing kpt #:   208  of   234
     total cpu time spent up to now is       22.3 secs

     Computing kpt #:   209  of   234
     total cpu time spent up to now is       22.4 secs

     Computing kpt #:   210  of   234
     total cpu time spent up to now is       22.5 secs

     Computing kpt #:   211  of   234
     total cpu time spent up to now is       22.6 secs

     Computing kpt #:   212  of   234
     total cpu time spent up to now is       22.6 secs

     Computing kpt #:   213  of   234
     total cpu time spent up to now is       22.7 secs

     Computing kpt #:   214  of   234
     total cpu time spent up to now is       22.8 secs

     Computing kpt #:   215  of   234
     total cpu time spent up to now is       22.9 secs

     Computing kpt #:   216  of   234
     total cpu time spent up to now is       22.9 secs

     Computing kpt #:   217  of   234
     total cpu time spent up to now is       23.0 secs

     Computing kpt #:   218  of   234
     total cpu time spent up to now is       23.1 secs

     Computing kpt #:   219  of   234
     total cpu time spent up to now is       23.1 secs

     Computing kpt #:   220  of   234
     total cpu time spent up to now is       23.2 secs

     Computing kpt #:   221  of   234
     total cpu time spent up to now is       23.3 secs

     Computing kpt #:   222  of   234
     total cpu time spent up to now is       23.4 secs

     Computing kpt #:   223  of   234
     total cpu time spent up to now is       23.4 secs

     Computing kpt #:   224  of   234
     total cpu time spent up to now is       23.5 secs

     Computing kpt #:   225  of   234
     total cpu time spent up to now is       23.6 secs

     Computing kpt #:   226  of   234
     total cpu time spent up to now is       23.7 secs

     Computing kpt #:   227  of   234
     total cpu time spent up to now is       23.8 secs

     Computing kpt #:   228  of   234
     total cpu time spent up to now is       23.8 secs

     Computing kpt #:   229  of   234
     total cpu time spent up to now is       23.9 secs

     Computing kpt #:   230  of   234
     total cpu time spent up to now is       24.0 secs

     Computing kpt #:   231  of   234
     total cpu time spent up to now is       24.1 secs

     Computing kpt #:   232  of   234
     total cpu time spent up to now is       24.1 secs

     Computing kpt #:   233  of   234
     total cpu time spent up to now is       24.2 secs

     Computing kpt #:   234  of   234
     total cpu time spent up to now is       24.3 secs

     ethr =  5.00E-06,  avg # of iterations = 23.8

     total cpu time spent up to now is       24.3 secs

     End of band structure calculation

          k = 0.0000 0.0000 0.0000 (  4101 PWs)   bands (ev):

[...]

   -17.2403 -12.8848  -9.6942  -4.7985   1.0881   6.8102   7.7216   8.1135
     8.7992  10.1784

     occupation numbers 
     1.0000   1.0000   1.0000   1.0000   0.0000   0.0000   0.0000   0.0000
     0.0000   0.0000

          k = 0.1600 0.4850 0.0000 (  4146 PWs)   bands (ev):

   -16.8896 -13.3381  -9.7894  -4.4605   0.6585   7.3180   8.0757   8.1884
     9.3308  10.5345

     occupation numbers 
     1.0000   1.0000   1.0000   1.0000   0.0000   0.0000   0.0000   0.0000
     0.0000   0.0000

          k = 0.1600 0.5081 0.0000 (  4142 PWs)   bands (ev):

   -16.5326 -13.7764  -9.8630  -4.1462   0.2718   7.8272   8.0644   8.6518
     9.8885  10.7846

     occupation numbers 
     1.0000   1.0000   1.0000   1.0000   0.0000   0.0000   0.0000   0.0000
     0.0000   0.0000

          k = 0.1600 0.5312 0.0000 (  4138 PWs)   bands (ev):

   -16.1811 -14.1870  -9.9154  -3.8793  -0.0471   7.9902   8.4276   9.0879
    10.4685  10.7518

     occupation numbers 
     1.0000   1.0000   1.0000   1.0000   0.0000   0.0000   0.0000   0.0000
     0.0000   0.0000

          k = 0.1600 0.5543 0.0000 (  4140 PWs)   bands (ev):

   -15.8712 -14.5329  -9.9467  -3.6936  -0.2644   7.9829   8.9856   9.4421
    10.1682  10.8248

     occupation numbers 
     1.0000   1.0000   1.0000   1.0000   0.0000   0.0000   0.0000   0.0000
     0.0000   0.0000

          k = 0.1600 0.5774 0.0000 (  4128 PWs)   bands (ev):

   -15.7226 -14.6930  -9.9571  -3.6257  -0.3423   7.9792   9.4845   9.5936
     9.6625  10.7739

     occupation numbers 
     1.0000   1.0000   1.0000   1.0000   0.0000   0.0000   0.0000   0.0000
     0.0000   0.0000

          k = 0.1800 0.3118 0.0000 (  4116 PWs)   bands (ev):

   -19.0698 -10.0947  -8.6760  -6.7893   3.9632   4.2237   5.2201   6.1183
     7.8126   8.4945

     occupation numbers 
     1.0000   1.0000   1.0000   1.0000   0.0000   0.0000   0.0000   0.0000
     0.0000   0.0000

          k = 0.1800 0.3349 0.0000 (  4130 PWs)   bands (ev):

   -18.8150 -10.4633  -8.9747  -6.4977   3.5138   4.5796   5.5686   6.4841
     8.1557   8.7023

     occupation numbers 
     1.0000   1.0000   1.0000   1.0000   0.0000   0.0000   0.0000   0.0000
     0.0000   0.0000

          k = 0.1800 0.3580 0.0000 (  4134 PWs)   bands (ev):

   -18.5433 -10.8584  -9.2398  -6.1901   3.0558   4.9603   5.9396   6.8758
     8.5183   8.7893

     occupation numbers 
     1.0000   1.0000   1.0000   1.0000   0.0000   0.0000   0.0000   0.0000
     0.0000   0.0000

          k = 0.1800 0.3811 0.0000 (  4134 PWs)   bands (ev):

   -18.2554 -11.2759  -9.4702  -5.8679   2.5930   5.3654   6.3318   7.2932
     8.7940   8.8976

     occupation numbers 
     1.0000   1.0000   1.0000   1.0000   0.0000   0.0000   0.0000   0.0000
     0.0000   0.0000

          k = 0.1800 0.4041 0.0000 (  4131 PWs)   bands (ev):

   -17.9518 -11.7100  -9.6675  -5.5335   2.1292   5.7946   6.7435   7.7360
     8.7617   9.2882

     occupation numbers 
     1.0000   1.0000   1.0000   1.0000   0.0000   0.0000   0.0000   0.0000
     0.0000   0.0000

          k = 0.1800 0.4272 0.0000 (  4134 PWs)   bands (ev):

   -17.6332 -12.1545  -9.8347  -5.1900   1.6684   6.2476   7.1719   8.2027
     8.7174   9.6811

     occupation numbers 
     1.0000   1.0000   1.0000   1.0000   0.0000   0.0000   0.0000   0.0000
     0.0000   0.0000

          k = 0.1800 0.4503 0.0000 (  4133 PWs)   bands (ev):

   -17.3008 -12.6025  -9.9743  -4.8423   1.2170   6.7235   7.6127   8.6254
     8.7401  10.0588

     occupation numbers 
     1.0000   1.0000   1.0000   1.0000   0.0000   0.0000   0.0000   0.0000
     0.0000   0.0000

          k = 0.1800 0.4734 0.0000 (  4140 PWs)   bands (ev):

   -16.9566 -13.0486 -10.0885  -4.4973   0.7830   7.2213   8.0587   8.6117
     9.2287  10.3902

     occupation numbers 
     1.0000   1.0000   1.0000   1.0000   0.0000   0.0000   0.0000   0.0000
     0.0000   0.0000

          k = 0.1800 0.4965 0.0000 (  4140 PWs)   bands (ev):

   -16.6035 -13.4859 -10.1785  -4.1665   0.3796   7.7388   8.4969   8.5765
     9.7719  10.6364

     occupation numbers 
     1.0000   1.0000   1.0000   1.0000   0.0000   0.0000   0.0000   0.0000
     0.0000   0.0000

          k = 0.1800 0.5196 0.0000 (  4132 PWs)   bands (ev):

   -16.2488 -13.9055 -10.2452  -3.8682   0.0266   8.2635   8.5610   8.9036
    10.3407  10.7865

     occupation numbers 
     1.0000   1.0000   1.0000   1.0000   0.0000   0.0000   0.0000   0.0000
     0.0000   0.0000

          k = 0.1800 0.5427 0.0000 (  4136 PWs)   bands (ev):

   -15.9123 -14.2863 -10.2895  -3.6324  -0.2466   8.4979   8.8611   9.2360
    10.5752  10.8761

     occupation numbers 
     1.0000   1.0000   1.0000   1.0000   0.0000   0.0000   0.0000   0.0000
     0.0000   0.0000

          k = 0.1800 0.5658 0.0000 (  4136 PWs)   bands (ev):

   -15.6610 -14.5599 -10.3113  -3.4979  -0.4002   8.4973   9.4115   9.4301
    10.0176  10.9302

     occupation numbers 
     1.0000   1.0000   1.0000   1.0000   0.0000   0.0000   0.0000   0.0000
     0.0000   0.0000

          k = 0.2000 0.3464 0.0000 (  4136 PWs)   bands (ev):

   -18.5524 -10.7903  -9.3015  -6.1994   3.0818   4.9476   5.9247   6.8628
     8.5039   9.0283

     occupation numbers 
     1.0000   1.0000   1.0000   1.0000   0.0000   0.0000   0.0000   0.0000
     0.0000   0.0000

          k = 0.2000 0.3695 0.0000 (  4144 PWs)   bands (ev):

   -18.2736 -11.1439  -9.5932  -5.8859   2.6428   5.3401   6.3019   7.2674
     8.8678   9.2242

     occupation numbers 
     1.0000   1.0000   1.0000   1.0000   0.0000   0.0000   0.0000   0.0000
     0.0000   0.0000

          k = 0.2000 0.3926 0.0000 (  4140 PWs)   bands (ev):

   -17.9787 -11.5248  -9.8446  -5.5586   2.1998   5.7569   6.6981   7.6977
     9.2417   9.2818

     occupation numbers 
     1.0000   1.0000   1.0000   1.0000   0.0000   0.0000   0.0000   0.0000
     0.0000   0.0000

          k = 0.2000 0.4157 0.0000 (  4130 PWs)   bands (ev):

   -17.6685 -11.9282 -10.0560  -5.2201   1.7558   6.1974   7.1099   8.1534
     9.2675   9.6153

     occupation numbers 
     1.0000   1.0000   1.0000   1.0000   0.0000   0.0000   0.0000   0.0000
     0.0000   0.0000

          k = 0.2000 0.4388 0.0000 (  4127 PWs)   bands (ev):

   -17.3442 -12.3472 -10.2308  -4.8742   1.3156   6.6611   7.5325   8.6332
     9.2286   9.9697

     occupation numbers 
     1.0000   1.0000   1.0000   1.0000   0.0000   0.0000   0.0000   0.0000
     0.0000   0.0000

          k = 0.2000 0.4619 0.0000 (  4130 PWs)   bands (ev):

   -17.0071 -12.7741 -10.3730  -4.5264   0.8857   7.1471   7.9572   9.1055
     9.2171  10.2753

     occupation numbers 
     1.0000   1.0000   1.0000   1.0000   0.0000   0.0000   0.0000   0.0000
     0.0000   0.0000

          k = 0.2000 0.4850 0.0000 (  4139 PWs)   bands (ev):

   -16.6597 -13.2013 -10.4859  -4.1851   0.4756   7.6540   8.3696   9.1284
     9.6834  10.5061

     occupation numbers 
     1.0000   1.0000   1.0000   1.0000   0.0000   0.0000   0.0000   0.0000
     0.0000   0.0000

          k = 0.2000 0.5081 0.0000 (  4128 PWs)   bands (ev):

   -16.3065 -13.6195 -10.5714  -3.8638   0.1001   8.1792   8.7450   9.0964
    10.2376  10.6775

     occupation numbers 
     1.0000   1.0000   1.0000   1.0000   0.0000   0.0000   0.0000   0.0000
     0.0000   0.0000

          k = 0.2000 0.5312 0.0000 (  4130 PWs)   bands (ev):

   -15.9591 -14.0155 -10.6317  -3.5865  -0.2162   8.7128   9.0467   9.0798
    10.8083  10.8434

     occupation numbers 
     1.0000   1.0000   1.0000   1.0000   0.0000   0.0000   0.0000   0.0000
     0.0000   0.0000

          k = 0.2000 0.5543 0.0000 (  4132 PWs)   bands (ev):

   -15.6524 -14.3520 -10.6673  -3.3900  -0.4372   9.0206   9.2381   9.3093
    10.4361  11.0237

     occupation numbers 
     1.0000   1.0000   1.0000   1.0000   0.0000   0.0000   0.0000   0.0000
     0.0000   0.0000

          k = 0.2000 0.5774 0.0000 (  4128 PWs)   bands (ev):

   -15.5052 -14.5091 -10.6789  -3.3173  -0.5180   9.0276   9.3023   9.7658
     9.9736  11.1224

     occupation numbers 
     1.0000   1.0000   1.0000   1.0000   0.0000   0.0000   0.0000   0.0000
     0.0000   0.0000

          k = 0.2200 0.3811 0.0000 (  4130 PWs)   bands (ev):

   -17.9876 -11.4524  -9.9142  -5.5668   2.2243   5.7443   6.6828   7.6849
     9.2260   9.5829

     occupation numbers 
     1.0000   1.0000   1.0000   1.0000   0.0000   0.0000   0.0000   0.0000
     0.0000   0.0000

          k = 0.2200 0.4041 0.0000 (  4134 PWs)   bands (ev):

   -17.6863 -11.7894 -10.1932  -5.2351   1.8013   6.1722   7.0785   8.1279
     9.5817   9.7583

     occupation numbers 
     1.0000   1.0000   1.0000   1.0000   0.0000   0.0000   0.0000   0.0000
     0.0000   0.0000

          k = 0.2200 0.4272 0.0000 (  4125 PWs)   bands (ev):

   -17.3702 -12.1538 -10.4261  -4.8938   1.3778   6.6235   7.4832   8.5963
     9.7790   9.9144

     occupation numbers 
     1.0000   1.0000   1.0000   1.0000   0.0000   0.0000   0.0000   0.0000
     0.0000   0.0000

          k = 0.2200 0.4503 0.0000 (  4131 PWs)   bands (ev):

   -17.0411 -12.5408 -10.6149  -4.5465   0.9588   7.0971   7.8873   9.0887
     9.7467  10.1949

     occupation numbers 
     1.0000   1.0000   1.0000   1.0000   0.0000   0.0000   0.0000   0.0000
     0.0000   0.0000

          k = 0.2200 0.4734 0.0000 (  4128 PWs)   bands (ev):

   -16.7004 -12.9409 -10.7638  -4.1997   0.5509   7.5921   8.2743   9.5860
     9.7239  10.4060

     occupation numbers 
     1.0000   1.0000   1.0000   1.0000   0.0000   0.0000   0.0000   0.0000
     0.0000   0.0000

          k = 0.2200 0.4965 0.0000 (  4131 PWs)   bands (ev):

   -16.3514 -13.3448 -10.8779  -3.8632   0.1645   8.1064   8.6181   9.6491
    10.1626  10.5791

     occupation numbers 
     1.0000   1.0000   1.0000   1.0000   0.0000   0.0000   0.0000   0.0000
     0.0000   0.0000

          k = 0.2200 0.5196 0.0000 (  4128 PWs)   bands (ev):

   -16.0014 -13.7401 -10.9603  -3.5548  -0.1812   8.6366   8.8860   9.6193
    10.7253  10.7795

     occupation numbers 
     1.0000   1.0000   1.0000   1.0000   0.0000   0.0000   0.0000   0.0000
     0.0000   0.0000

          k = 0.2200 0.5427 0.0000 (  4124 PWs)   bands (ev):

   -15.6688 -14.1045 -11.0140  -3.3041  -0.4574   9.0569   9.1725   9.6034
    10.8305  11.0378

     occupation numbers 
     1.0000   1.0000   1.0000   1.0000   0.0000   0.0000   0.0000   0.0000
     0.0000   0.0000

          k = 0.2200 0.5658 0.0000 (  4126 PWs)   bands (ev):

   -15.4193 -14.3707 -11.0404  -3.1575  -0.6171   9.1354   9.5404   9.7585
    10.3338  11.2816

     occupation numbers 
     1.0000   1.0000   1.0000   1.0000   0.0000   0.0000   0.0000   0.0000
     0.0000   0.0000

          k = 0.2400 0.4157 0.0000 (  4120 PWs)   bands (ev):

   -17.3790 -12.0780 -10.5028  -4.9001   1.3993   6.6109   7.4666   8.5836
     9.8958  10.1466

     occupation numbers 
     1.0000   1.0000   1.0000   1.0000   0.0000   0.0000   0.0000   0.0000
     0.0000   0.0000

          k = 0.2400 0.4388 0.0000 (  4120 PWs)   bands (ev):

   -17.0580 -12.3961 -10.7640  -4.5567   0.9971   7.0721   7.8515   9.0643
    10.1537  10.2755

     occupation numbers 
     1.0000   1.0000   1.0000   1.0000   0.0000   0.0000   0.0000   0.0000
     0.0000   0.0000

          k = 0.2400 0.4619 0.0000 (  4123 PWs)   bands (ev):

   -16.7249 -12.7421 -10.9740  -4.2090   0.5993   7.5547   8.2150   9.5687
    10.2536  10.3433

     occupation numbers 
     1.0000   1.0000   1.0000   1.0000   0.0000   0.0000   0.0000   0.0000
     0.0000   0.0000

          k = 0.2400 0.4850 0.0000 (  4118 PWs)   bands (ev):

   -16.3820 -13.1084 -11.1356  -3.8639   0.2130   8.0570   8.5292  10.0788
    10.2281  10.5076

     occupation numbers 
     1.0000   1.0000   1.0000   1.0000   0.0000   0.0000   0.0000   0.0000
     0.0000   0.0000

          k = 0.2400 0.5081 0.0000 (  4121 PWs)   bands (ev):

   -16.0340 -13.4835 -11.2544  -3.5339  -0.1498   8.5762   8.7635  10.1533
    10.6641  10.7189

     occupation numbers 
     1.0000   1.0000   1.0000   1.0000   0.0000   0.0000   0.0000   0.0000
     0.0000   0.0000

          k = 0.2400 0.5312 0.0000 (  4120 PWs)   bands (ev):

   -15.6913 -13.8498 -11.3354  -3.2407  -0.4661   8.9069   9.1069  10.1238
    11.0132  11.1335

     occupation numbers 
     1.0000   1.0000   1.0000   1.0000   0.0000   0.0000   0.0000   0.0000
     0.0000   0.0000

          k = 0.2400 0.5543 0.0000 (  4116 PWs)   bands (ev):

   -15.3874 -14.1698 -11.3826  -3.0243  -0.6964   8.9764   9.6355  10.1039
    10.7430  11.3519

     occupation numbers 
     1.0000   1.0000   1.0000   1.0000   0.0000   0.0000   0.0000   0.0000
     0.0000   0.0000

          k = 0.2400 0.5774 0.0000 (  4126 PWs)   bands (ev):

   -15.2398 -14.3234 -11.3982  -2.9418  -0.7839   8.9962  10.0285  10.0894
    10.3874  11.5480

     occupation numbers 
     1.0000   1.0000   1.0000   1.0000   0.0000   0.0000   0.0000   0.0000
     0.0000   0.0000

          k = 0.2600 0.4503 0.0000 (  4116 PWs)   bands (ev):

   -16.7329 -12.6636 -11.0564  -4.2123   0.6159   7.5423   8.1949   9.5569
    10.3221  10.6878

     occupation numbers 
     1.0000   1.0000   1.0000   1.0000   0.0000   0.0000   0.0000   0.0000
     0.0000   0.0000

          k = 0.2600 0.4734 0.0000 (  4115 PWs)   bands (ev):

   -16.3975 -12.9608 -11.2940  -3.8647   0.2389   8.0322   8.4833  10.0723
    10.4703  10.7193

     occupation numbers 
     1.0000   1.0000   1.0000   1.0000   0.0000   0.0000   0.0000   0.0000
     0.0000   0.0000

          k = 0.2600 0.4965 0.0000 (  4112 PWs)   bands (ev):

   -16.0543 -13.2851 -11.4748  -3.5223  -0.1276   8.5393   8.6867  10.5786
    10.6781  10.6981

     occupation numbers 
     1.0000   1.0000   1.0000   1.0000   0.0000   0.0000   0.0000   0.0000
     0.0000   0.0000

          k = 0.2600 0.5196 0.0000 (  4111 PWs)   bands (ev):

   -15.7100 -13.6240 -11.6030  -3.1991  -0.4682   8.8003   9.0591  10.6056
    10.9837  11.1678

     occupation numbers 
     1.0000   1.0000   1.0000   1.0000   0.0000   0.0000   0.0000   0.0000
     0.0000   0.0000

          k = 0.2600 0.5427 0.0000 (  4109 PWs)   bands (ev):

   -15.3818 -13.9534 -11.6841  -2.9242  -0.7548   8.8497   9.5825  10.5673
    11.0933  11.3641

     occupation numbers 
     1.0000   1.0000   1.0000   1.0000   0.0000   0.0000   0.0000   0.0000
     0.0000   0.0000

          k = 0.2600 0.5658 0.0000 (  4114 PWs)   bands (ev):

   -15.1312 -14.2062 -11.7236  -2.7532  -0.9316   8.8657  10.0844  10.4789
    10.7705  11.7198

     occupation numbers 
     1.0000   1.0000   1.0000   1.0000   0.0000   0.0000   0.0000   0.0000
     0.0000   0.0000

          k = 0.2800 0.4850 0.0000 (  4114 PWs)   bands (ev):

   -16.0612 -13.2063 -11.5612  -3.5187  -0.1196   8.5270   8.6606  10.5961
    10.6641  11.0323

     occupation numbers 
     1.0000   1.0000   1.0000   1.0000   0.0000   0.0000   0.0000   0.0000
     0.0000   0.0000

          k = 0.2800 0.5081 0.0000 (  4109 PWs)   bands (ev):

   -15.7203 -13.4814 -11.7660  -3.1785  -0.4681   8.7451   9.0348  10.9656
    10.9822  11.1366

     occupation numbers 
     1.0000   1.0000   1.0000   1.0000   0.0000   0.0000   0.0000   0.0000
     0.0000   0.0000

          k = 0.2800 0.5312 0.0000 (  4108 PWs)   bands (ev):

   -15.3840 -13.7767 -11.9073  -2.8616  -0.7907   8.7689   9.5477  10.9303
    11.3138  11.3583

     occupation numbers 
     1.0000   1.0000   1.0000   1.0000   0.0000   0.0000   0.0000   0.0000
     0.0000   0.0000

          k = 0.2800 0.5543 0.0000 (  4111 PWs)   bands (ev):

   -15.0810 -14.0588 -11.9888  -2.6077  -1.0481   8.7684  10.0484  10.8278
    11.1537  11.7863

     occupation numbers 
     1.0000   1.0000   1.0000   1.0000   0.0000   0.0000   0.0000   0.0000
     0.0000   0.0000

          k = 0.2800 0.5774 0.0000 (  4116 PWs)   bands (ev):

   -14.9265 -14.2070 -12.0154  -2.5012  -1.1558   8.7659  10.4331  10.5963
    11.0655  12.0501

     occupation numbers 
     1.0000   1.0000   1.0000   1.0000   0.0000   0.0000   0.0000   0.0000
     0.0000   0.0000

          k = 0.3000 0.5196 0.0000 (  4108 PWs)   bands (ev):

   -15.3857 -13.7054 -11.9934  -2.8403  -0.8025   8.7412   9.5359  11.0833
    11.3545  11.3735

     occupation numbers 
     1.0000   1.0000   1.0000   1.0000   0.0000   0.0000   0.0000   0.0000
     0.0000   0.0000

          k = 0.3000 0.5427 0.0000 (  4124 PWs)   bands (ev):

   -15.0634 -13.9532 -12.1467  -2.5258  -1.1149   8.7170  10.0273  11.0291
    11.3935  11.8038

     occupation numbers 
     1.0000   1.0000   1.0000   1.0000   0.0000   0.0000   0.0000   0.0000
     0.0000   0.0000

          k = 0.3000 0.5658 0.0000 (  4122 PWs)   bands (ev):

   -14.8014 -14.1784 -12.2228  -2.2943  -1.3447   8.6989  10.4709  10.8634
    11.3201  12.2334

     occupation numbers 
     1.0000   1.0000   1.0000   1.0000   0.0000   0.0000   0.0000   0.0000
     0.0000   0.0000

          k = 0.3200 0.5543 0.0000 (  4126 PWs)   bands (ev):

   -14.7616 -14.1590 -12.3000  -2.2031  -1.4298   8.6756  10.4666  10.9897
    11.4107  12.2792

     occupation numbers 
     1.0000   1.0000   1.0000   1.0000   0.0000   0.0000   0.0000   0.0000
     0.0000   0.0000

          k = 0.3200 0.5774 0.0000 (  4130 PWs)   bands (ev):

   -14.5663 -14.3210 -12.3528  -1.9966  -1.6338   8.6602  10.7542  10.8741
    11.3763  12.6284

     occupation numbers 
     1.0000   1.0000   1.0000   1.0003   0.0003   0.0000   0.0000   0.0000
     0.0000   0.0000

     the Fermi energy is    -1.7708 ev
     (compare with:    -1.8024 eV, computed in scf)

     Writing all to output data dir ./tmp50/graphene_PBE_vdW.save/

     init_run     :      8.54s CPU      8.58s WALL (       1 calls)
     electrons    :     14.34s CPU     15.65s WALL (       1 calls)

     Called by init_run:
     wfcinit      :      0.00s CPU      0.00s WALL (       1 calls)
     wfcinit:atom :      0.02s CPU      0.02s WALL (     234 calls)
     wfcinit:wfcr :      0.68s CPU      0.72s WALL (     234 calls)
     potinit      :      8.25s CPU      8.28s WALL (       1 calls)
     hinit0       :      0.27s CPU      0.27s WALL (       1 calls)

     Called by electrons:
     c_bands      :     14.33s CPU     15.64s WALL (       1 calls)
     v_of_rho     :      8.24s CPU      8.27s WALL (       1 calls)
     v_h          :      0.00s CPU      0.00s WALL (       1 calls)
     v_xc         :      8.24s CPU      8.27s WALL (       1 calls)
     vdW_kernel   :      8.21s CPU      8.23s WALL (       1 calls)

     Called by c_bands:
     init_us_2    :      0.02s CPU      0.02s WALL (     234 calls)
     init_us_2:cp :      0.02s CPU      0.02s WALL (     234 calls)
     cegterg      :     13.54s CPU     14.78s WALL (     403 calls)

     Called by sum_band:

     Called by *egterg:
     cdiaghg      :      0.84s CPU      0.86s WALL (    5793 calls)
     cegterg:over :      1.03s CPU      1.06s WALL (    5559 calls)
     cegterg:upda :      0.91s CPU      1.20s WALL (    5559 calls)
     cegterg:last :      1.00s CPU      1.12s WALL (    3210 calls)
     h_psi        :      9.65s CPU     10.30s WALL (    6196 calls)
     g_psi        :      0.10s CPU      0.16s WALL (    5559 calls)

     Called by h_psi:
     h_psi:calbec :      0.43s CPU      0.45s WALL (    6196 calls)
     vloc_psi     :      8.59s CPU      8.93s WALL (    6196 calls)
     add_vuspsi   :      0.56s CPU      0.82s WALL (    6196 calls)

     General routines
     calbec       :      0.42s CPU      0.44s WALL (    6196 calls)
     fft          :      0.26s CPU      0.26s WALL (      61 calls)
     fftw         :      7.77s CPU      8.02s WALL (   66542 calls)
     davcio       :      0.00s CPU      0.03s WALL (     468 calls)

     Parallel routines

     PWSCF        :     23.27s CPU     24.83s WALL


   This run was terminated on:  14:30:35  15Apr2024            

=------------------------------------------------------------------------------=
   JOB DONE.
=------------------------------------------------------------------------------=
