
     Program PROJWFC v.7.2 starts on 15Apr2024 at 14:30:35 

     This program is part of the open-source Quantum ESPRESSO suite
     for quantum simulation of materials; please cite
         "P. Giannozzi et al., J. Phys.:Condens. Matter 21 395502 (2009);
         "P. Giannozzi et al., J. Phys.:Condens. Matter 29 465901 (2017);
         "P. Giannozzi et al., J. Chem. Phys. 152 154105 (2020);
          URL http://www.quantum-espresso.org", 
     in publications or presentations arising from this work. More details at
     http://www.quantum-espresso.org/quote

     Parallel version (MPI & OpenMP), running on       8 processor cores
     Number of MPI processes:                 8
     Threads/MPI process:                     1

     MPI processes distributed on     1 nodes
     R & G space division:  proc/nbgrp/npool/nimage =       8
     0 MiB available memory on the printing compute node when the environment starts


     Reading xml data from directory:

     ./tmp50/graphene_PBE_vdW.save/

     IMPORTANT: XC functional enforced from input :
     Exchange-correlation= VDW-DF2-B86R
                           (   1   4  26   0   2   0   0)
     Any further DFT definition will be discarded
     Please, verify this is what you really want


     Parallelization info
     --------------------
     sticks:   dense  smooth     PW     G-vecs:    dense   smooth      PW
     Min          45      45     13                 4137     4137     699
     Max          46      46     14                 4158     4158     720
     Sum         361     361    109                33185    33185    5693

     Using Slab Decomposition



     %%%%%%%%%%%%%%%%%%%%%%%%%%%%%%%%%%%%%%%%%%%%%%%%%%%%%%%%%%%%%%%%%%%%%%%%
     %                                                                      %
     % You are using vdW-DF, which was implemented by the Thonhauser group. %
     % Please cite the following two papers that made this development      %
     % possible and the two reviews that describe the various versions:     %
     %                                                                      %
     %   T. Thonhauser et al., PRL 115, 136402 (2015).                      %
     %   T. Thonhauser et al., PRB 76, 125112 (2007).                       %
     %   K. Berland et al., Rep. Prog. Phys. 78, 066501 (2015).             %
     %   D.C. Langreth et al., J. Phys.: Condens. Matter 21, 084203 (2009). %
     %                                                                      %
     % If you are calculating stress with vdW-DF, please also cite:         %
     %                                                                      %
     %   R. Sabatini et al., J. Phys.: Condens. Matter 24, 424209 (2012).   %
     %                                                                      %
     %%%%%%%%%%%%%%%%%%%%%%%%%%%%%%%%%%%%%%%%%%%%%%%%%%%%%%%%%%%%%%%%%%%%%%%%

     %%%%%%%%%%%%%%%%%%%%%%%%%%%%%%%%%%%%%%%%%%%%%%%%%%%%%%%%%%%%%%%%%%%%%%%%
     %                                                                      %
     %  vdW-DF NEWS:                                                        %
     %                                                                      %
     %  * vdW-DF3 is now available. DOI: 10.1021/acs.jctc.0c00471           %
     %    use with input_dft = 'vdW-DF3-opt1' or 'vdW-DF3-opt2'             %
     %                                                                      %
     %  * Unscreened and range-separated hybrid vdW-DF-cx functionals       %
     %    DOI: 10.1063/1.4986522 and 10.1088/1361-648X/ac2ad2               %
     %    use with input_dft = 'vdW-DF-cx0'    and 'vdW-DF-ahcx'            %
     %  * Unscreened and range-separated hybrid vdW-DF2-b86r functionals    %
     %    DOI: 10.1063/1.4986522 and DOI: 10.1103/PhysRevX.12.041003        %
     %    use with input_dft = 'vdW-DF2-br0' and 'vdW-DF2-ahbr'             %
     %                                                                      %
     %%%%%%%%%%%%%%%%%%%%%%%%%%%%%%%%%%%%%%%%%%%%%%%%%%%%%%%%%%%%%%%%%%%%%%%%



     Gaussian broadening (read from file): ngauss,degauss=  -1    0.005000


     Calling projwave .... 
     Subspace diagonalization in iterative solution of the eigenvalue problem:
     one sub-group per band group will be used
     ELPA distributed-memory algorithm (size of sub-group:  2*  2 procs)

     linear algebra parallelized on   4 procs

  Problem Sizes 
  natomwfc =            8
  nx       =            4
  nbnd     =           10
  nkstot   =          234
  npwx     =          565
  nkb      =           16


     Atomic states used for projection
     (read from pseudopotential files):

     state #   1: atom   1 (C  ), wfc  1 (l=0 m= 1)
     state #   2: atom   1 (C  ), wfc  2 (l=1 m= 1)
     state #   3: atom   1 (C  ), wfc  2 (l=1 m= 2)
     state #   4: atom   1 (C  ), wfc  2 (l=1 m= 3)
     state #   5: atom   2 (C  ), wfc  1 (l=0 m= 1)
     state #   6: atom   2 (C  ), wfc  2 (l=1 m= 1)
     state #   7: atom   2 (C  ), wfc  2 (l=1 m= 2)
     state #   8: atom   2 (C  ), wfc  2 (l=1 m= 3)

 k =   0.0000000000  0.0000000000  0.0000000000
==== e(   1) =   -21.32603 eV ==== 
     psi = 0.493*[#   1]+0.493*[#   5]
    |psi|^2 = 0.985
==== e(   2) =    -9.44843 eV ==== 
     psi = 0.475*[#   2]+0.475*[#   6]
    |psi|^2 = 0.950
==== e(   3) =    -4.89758 eV ==== 
     psi = 0.249*[#   3]+0.249*[#   4]+0.249*[#   7]+0.249*[#   8]
    |psi|^2 = 0.997
==== e(   4) =    -4.89758 eV ==== 
     psi = 0.249*[#   3]+0.249*[#   4]+0.249*[#   7]+0.249*[#   8]
    |psi|^2 = 0.997
==== e(   5) =     1.11913 eV ==== 
     psi = 0.003*[#   1]+0.003*[#   5]
    |psi|^2 = 0.007
==== e(   6) =     2.13058 eV ==== 
     psi = 0.014*[#   2]+0.014*[#   6]
    |psi|^2 = 0.028
==== e(   7) =     2.94070 eV ==== 

    |psi|^2 = 0.001
==== e(   8) =     4.73391 eV ==== 
     psi = 0.005*[#   2]+0.005*[#   6]
    |psi|^2 = 0.011
==== e(   9) =     5.65722 eV ==== 
     psi = 0.001*[#   1]+0.001*[#   5]
    |psi|^2 = 0.002
==== e(  10) =     6.58038 eV ==== 
     psi = 0.238*[#   3]+0.238*[#   4]+0.238*[#   7]+0.238*[#   8]
    |psi|^2 = 0.951

 k =   0.0000000000  0.0230940108  0.0000000000
==== e(   1) =   -21.31661 eV ==== 
     psi = 0.491*[#   1]+0.491*[#   5]
    |psi|^2 = 0.985
==== e(   2) =    -9.43710 eV ==== 
     psi = 0.475*[#   2]+0.475*[#   6]
    |psi|^2 = 0.950
==== e(   3) =    -4.93685 eV ==== 
     psi = 0.249*[#   3]+0.249*[#   4]+0.249*[#   7]+0.249*[#   8]+0.001*[#   1]
          +0.001*[#   5]
    |psi|^2 = 0.997
==== e(   4) =    -4.91831 eV ==== 
     psi = 0.249*[#   3]+0.249*[#   4]+0.249*[#   7]+0.249*[#   8]
    |psi|^2 = 0.997
==== e(   5) =     1.13193 eV ==== 
     psi = 0.003*[#   1]+0.003*[#   5]
    |psi|^2 = 0.008
==== e(   6) =     2.14345 eV ==== 
     psi = 0.014*[#   2]+0.014*[#   6]
    |psi|^2 = 0.028
==== e(   7) =     2.95378 eV ==== 

    |psi|^2 = 0.001
==== e(   8) =     4.74679 eV ==== 
     psi = 0.005*[#   2]+0.005*[#   6]
    |psi|^2 = 0.011
==== e(   9) =     5.66975 eV ==== 
     psi = 0.001*[#   1]+0.001*[#   5]
    |psi|^2 = 0.002
==== e(  10) =     6.58669 eV ==== 
     psi = 0.236*[#   3]+0.236*[#   4]+0.236*[#   7]+0.236*[#   8]+0.002*[#   1]
          +0.002*[#   5]
    |psi|^2 = 0.950

 k =   0.0000000000  0.0461880215  0.0000000000
==== e(   1) =   -21.28843 eV ==== 
     psi = 0.485*[#   1]+0.485*[#   5]+0.004*[#   3]+0.004*[#   4]+0.004*[#   7]
          +0.004*[#   8]
    |psi|^2 = 0.985
==== e(   2) =    -9.40339 eV ==== 
     psi = 0.476*[#   2]+0.476*[#   6]
    |psi|^2 = 0.951
==== e(   3) =    -5.05493 eV ==== 
     psi = 0.247*[#   3]+0.247*[#   4]+0.247*[#   7]+0.247*[#   8]+0.004*[#   1]
          +0.004*[#   5]
    |psi|^2 = 0.997
==== e(   4) =    -4.97975 eV ==== 
     psi = 0.249*[#   3]+0.249*[#   4]+0.249*[#   7]+0.249*[#   8]
    |psi|^2 = 0.997
==== e(   5) =     1.17030 eV ==== 
     psi = 0.003*[#   1]+0.003*[#   5]+0.001*[#   3]+0.001*[#   4]+0.001*[#   7]
          +0.001*[#   8]
    |psi|^2 = 0.011
==== e(   6) =     2.18201 eV ==== 
     psi = 0.014*[#   2]+0.014*[#   6]
    |psi|^2 = 0.027
==== e(   7) =     2.99299 eV ==== 

    |psi|^2 = 0.001
==== e(   8) =     4.78532 eV ==== 
     psi = 0.005*[#   2]+0.005*[#   6]
    |psi|^2 = 0.011
==== e(   9) =     5.70725 eV ==== 
     psi = 0.001*[#   1]+0.001*[#   5]
    |psi|^2 = 0.003
==== e(  10) =     6.60299 eV ==== 
     psi = 0.232*[#   3]+0.232*[#   4]+0.232*[#   7]+0.232*[#   8]+0.008*[#   1]
          +0.008*[#   5]
    |psi|^2 = 0.945

 k =   0.0000000000  0.0692820323  0.0000000000
==== e(   1) =   -21.24139 eV ==== 
     psi = 0.477*[#   1]+0.477*[#   5]+0.008*[#   3]+0.008*[#   4]+0.008*[#   7]
          +0.008*[#   8]
    |psi|^2 = 0.985
==== e(   2) =    -9.34681 eV ==== 
     psi = 0.476*[#   2]+0.476*[#   6]
    |psi|^2 = 0.953
==== e(   3) =    -5.24422 eV ==== 
     psi = 0.245*[#   3]+0.245*[#   4]+0.245*[#   7]+0.245*[#   8]+0.009*[#   1]
          +0.009*[#   5]
    |psi|^2 = 0.997
==== e(   4) =    -5.07936 eV ==== 
     psi = 0.249*[#   3]+0.249*[#   4]+0.249*[#   7]+0.249*[#   8]
    |psi|^2 = 0.997
==== e(   5) =     1.23427 eV ==== 
     psi = 0.003*[#   3]+0.003*[#   4]+0.003*[#   7]+0.003*[#   8]+0.002*[#   1]
          +0.002*[#   5]
    |psi|^2 = 0.015
==== e(   6) =     2.24633 eV ==== 
     psi = 0.013*[#   2]+0.013*[#   6]
    |psi|^2 = 0.027
==== e(   7) =     3.05837 eV ==== 

    |psi|^2 = 0.002
==== e(   8) =     4.84963 eV ==== 
     psi = 0.005*[#   2]+0.005*[#   6]
    |psi|^2 = 0.010
==== e(   9) =     5.76978 eV ==== 
     psi = 0.001*[#   1]+0.001*[#   5]
    |psi|^2 = 0.003
==== e(  10) =     6.62625 eV ==== 
     psi = 0.226*[#   3]+0.226*[#   4]+0.226*[#   7]+0.226*[#   8]+0.018*[#   1]
          +0.018*[#   5]
    |psi|^2 = 0.938

 k =   0.0000000000  0.0923760431  0.0000000000
==== e(   1) =   -21.17551 eV ==== 
     psi = 0.466*[#   1]+0.466*[#   5]+0.013*[#   3]+0.013*[#   4]+0.013*[#   7]
          +0.013*[#   8]
    |psi|^2 = 0.985
==== e(   2) =    -9.26769 eV ==== 
     psi = 0.477*[#   2]+0.477*[#   6]
    |psi|^2 = 0.954
==== e(   3) =    -5.49964 eV ==== 
     psi = 0.242*[#   3]+0.242*[#   4]+0.242*[#   7]+0.242*[#   8]+0.015*[#   1]
          +0.015*[#   5]
    |psi|^2 = 0.997
==== e(   4) =    -5.21108 eV ==== 
     psi = 0.249*[#   3]+0.249*[#   4]+0.249*[#   7]+0.249*[#   8]
    |psi|^2 = 0.997
==== e(   5) =     1.32384 eV ==== 
     psi = 0.004*[#   3]+0.004*[#   4]+0.004*[#   7]+0.004*[#   8]+0.001*[#   1]
          +0.001*[#   5]
    |psi|^2 = 0.020
==== e(   6) =     2.33634 eV ==== 
     psi = 0.013*[#   2]+0.013*[#   6]
    |psi|^2 = 0.026
==== e(   7) =     3.14990 eV ==== 

    |psi|^2 = 0.002
==== e(   8) =     4.93960 eV ==== 
     psi = 0.005*[#   2]+0.005*[#   6]
    |psi|^2 = 0.010
==== e(   9) =     5.85711 eV ==== 
     psi = 0.002*[#   1]+0.002*[#   5]
    |psi|^2 = 0.004
==== e(  10) =     6.64889 eV ==== 
     psi = 0.216*[#   3]+0.216*[#   4]+0.216*[#   7]+0.216*[#   8]+0.032*[#   1]
          +0.032*[#   5]
    |psi|^2 = 0.928

 k =   0.0000000000  0.1154700538  0.0000000000
==== e(   1) =   -21.09090 eV ==== 
     psi = 0.453*[#   1]+0.453*[#   5]+0.020*[#   3]+0.020*[#   4]+0.020*[#   7]
          +0.020*[#   8]
    |psi|^2 = 0.984
==== e(   2) =    -9.16622 eV ==== 
     psi = 0.478*[#   2]+0.478*[#   6]
    |psi|^2 = 0.957
==== e(   3) =    -5.81415 eV ==== 
     psi = 0.238*[#   3]+0.238*[#   4]+0.238*[#   7]+0.238*[#   8]+0.023*[#   1]
          +0.023*[#   5]
    |psi|^2 = 0.997
==== e(   4) =    -5.37017 eV ==== 
     psi = 0.249*[#   3]+0.249*[#   4]+0.249*[#   7]+0.249*[#   8]
    |psi|^2 = 0.997
==== e(   5) =     1.43901 eV ==== 
     psi = 0.006*[#   3]+0.006*[#   4]+0.006*[#   7]+0.006*[#   8]
    |psi|^2 = 0.026
==== e(   6) =     2.45199 eV ==== 
     psi = 0.012*[#   2]+0.012*[#   6]
    |psi|^2 = 0.024
==== e(   7) =     3.26758 eV ==== 

    |psi|^2 = 0.003
==== e(   8) =     5.05527 eV ==== 
     psi = 0.005*[#   2]+0.005*[#   6]
    |psi|^2 = 0.009
==== e(   9) =     5.96889 eV ==== 
     psi = 0.002*[#   1]+0.002*[#   5]
    |psi|^2 = 0.007
==== e(  10) =     6.66568 eV ==== 
     psi = 0.205*[#   3]+0.205*[#   4]+0.205*[#   7]+0.205*[#   8]+0.049*[#   1]
          +0.049*[#   5]
    |psi|^2 = 0.916

 k =   0.0000000000  0.1385640646  0.0000000000
==== e(   1) =   -20.98765 eV ==== 
     psi = 0.438*[#   1]+0.438*[#   5]+0.027*[#   3]+0.027*[#   4]+0.027*[#   7]
          +0.027*[#   8]
    |psi|^2 = 0.984
==== e(   2) =    -9.04262 eV ==== 
     psi = 0.480*[#   2]+0.480*[#   6]
    |psi|^2 = 0.959
==== e(   3) =    -6.17863 eV ==== 
     psi = 0.233*[#   3]+0.233*[#   4]+0.233*[#   7]+0.233*[#   8]+0.031*[#   1]
          +0.031*[#   5]
    |psi|^2 = 0.996
==== e(   4) =    -5.55164 eV ==== 
     psi = 0.249*[#   3]+0.249*[#   4]+0.249*[#   7]+0.249*[#   8]
    |psi|^2 = 0.997
==== e(   5) =     1.57976 eV ==== 
     psi = 0.008*[#   3]+0.008*[#   4]+0.008*[#   7]+0.008*[#   8]
    |psi|^2 = 0.031
==== e(   6) =     2.59321 eV ==== 
     psi = 0.012*[#   2]+0.012*[#   6]
    |psi|^2 = 0.023
==== e(   7) =     3.41142 eV ==== 

    |psi|^2 = 0.003
==== e(   8) =     5.19648 eV ==== 
     psi = 0.004*[#   2]+0.004*[#   6]
    |psi|^2 = 0.009
==== e(   9) =     6.10353 eV ==== 
     psi = 0.004*[#   1]+0.004*[#   5]+0.002*[#   3]+0.002*[#   4]+0.002*[#   7]
          +0.002*[#   8]
    |psi|^2 = 0.015
==== e(  10) =     6.67083 eV ==== 
     psi = 0.191*[#   3]+0.191*[#   4]+0.191*[#   7]+0.191*[#   8]+0.069*[#   1]
          +0.069*[#   5]
    |psi|^2 = 0.900

 k =   0.0000000000  0.1616580754  0.0000000000
==== e(   1) =   -20.86568 eV ==== 
     psi = 0.423*[#   1]+0.423*[#   5]+0.034*[#   3]+0.034*[#   4]+0.034*[#   7]
          +0.034*[#   8]
    |psi|^2 = 0.984
==== e(   2) =    -8.89677 eV ==== 
     psi = 0.481*[#   2]+0.481*[#   6]
    |psi|^2 = 0.962
==== e(   3) =    -6.58604 eV ==== 
     psi = 0.229*[#   3]+0.229*[#   4]+0.229*[#   7]+0.229*[#   8]+0.040*[#   1]
          +0.040*[#   5]
    |psi|^2 = 0.996
==== e(   4) =    -5.74857 eV ==== 
     psi = 0.249*[#   3]+0.249*[#   4]+0.249*[#   7]+0.249*[#   8]
    |psi|^2 = 0.997
==== e(   5) =     1.74609 eV ==== 
     psi = 0.009*[#   3]+0.009*[#   4]+0.009*[#   7]+0.009*[#   8]
    |psi|^2 = 0.036
==== e(   6) =     2.75997 eV ==== 
     psi = 0.011*[#   2]+0.011*[#   6]
    |psi|^2 = 0.021
==== e(   7) =     3.58141 eV ==== 

    |psi|^2 = 0.003
==== e(   8) =     5.36286 eV ==== 
     psi = 0.004*[#   2]+0.004*[#   6]
    |psi|^2 = 0.008
==== e(   9) =     6.25717 eV ==== 
     psi = 0.009*[#   1]+0.009*[#   5]+0.007*[#   3]+0.007*[#   4]+0.007*[#   7]
          +0.007*[#   8]
    |psi|^2 = 0.045
==== e(  10) =     6.66875 eV ==== 
     psi = 0.173*[#   3]+0.173*[#   4]+0.173*[#   7]+0.173*[#   8]+0.087*[#   1]
          +0.087*[#   5]
    |psi|^2 = 0.864

 k =   0.0000000000  0.1847520861  0.0000000000
==== e(   1) =   -20.72521 eV ==== 
     psi = 0.408*[#   1]+0.408*[#   5]+0.042*[#   3]+0.042*[#   4]+0.042*[#   7]
          +0.042*[#   8]
    |psi|^2 = 0.983
==== e(   2) =    -8.72907 eV ==== 
     psi = 0.483*[#   2]+0.483*[#   6]
    |psi|^2 = 0.965
==== e(   3) =    -7.02742 eV ==== 
     psi = 0.224*[#   3]+0.224*[#   4]+0.224*[#   7]+0.224*[#   8]+0.050*[#   1]
          +0.050*[#   5]
    |psi|^2 = 0.995
==== e(   4) =    -5.95603 eV ==== 
     psi = 0.249*[#   3]+0.249*[#   4]+0.249*[#   7]+0.249*[#   8]
    |psi|^2 = 0.997
==== e(   5) =     1.93796 eV ==== 
     psi = 0.010*[#   3]+0.010*[#   4]+0.010*[#   7]+0.010*[#   8]
    |psi|^2 = 0.039
==== e(   6) =     2.95209 eV ==== 
     psi = 0.010*[#   2]+0.010*[#   6]
    |psi|^2 = 0.020
==== e(   7) =     3.77754 eV ==== 

    |psi|^2 = 0.003
==== e(   8) =     5.55447 eV ==== 
     psi = 0.004*[#   2]+0.004*[#   6]
    |psi|^2 = 0.008
==== e(   9) =     6.40882 eV ==== 
     psi = 0.035*[#   1]+0.035*[#   5]+0.032*[#   3]+0.032*[#   4]+0.032*[#   7]
          +0.032*[#   8]
    |psi|^2 = 0.196
==== e(  10) =     6.67582 eV ==== 
     psi = 0.134*[#   3]+0.134*[#   4]+0.134*[#   7]+0.134*[#   8]+0.086*[#   1]
          +0.086*[#   5]
    |psi|^2 = 0.707

 k =   0.0000000000  0.2078460969  0.0000000000
==== e(   1) =   -20.56632 eV ==== 
     psi = 0.393*[#   1]+0.393*[#   5]+0.049*[#   3]+0.049*[#   4]+0.049*[#   7]
          +0.049*[#   8]
    |psi|^2 = 0.983
==== e(   2) =    -8.54032 eV ==== 
     psi = 0.484*[#   2]+0.484*[#   6]
    |psi|^2 = 0.969
==== e(   3) =    -7.49715 eV ==== 
     psi = 0.219*[#   3]+0.219*[#   4]+0.219*[#   7]+0.219*[#   8]+0.060*[#   1]
          +0.060*[#   5]
    |psi|^2 = 0.994
==== e(   4) =    -6.16929 eV ==== 
     psi = 0.249*[#   3]+0.249*[#   4]+0.249*[#   7]+0.249*[#   8]
    |psi|^2 = 0.997
==== e(   5) =     2.15534 eV ==== 
     psi = 0.010*[#   3]+0.010*[#   4]+0.010*[#   7]+0.010*[#   8]
    |psi|^2 = 0.041
==== e(   6) =     3.16931 eV ==== 
     psi = 0.009*[#   2]+0.009*[#   6]
    |psi|^2 = 0.018
==== e(   7) =     3.99978 eV ==== 

    |psi|^2 = 0.003
==== e(   8) =     5.77017 eV ==== 
     psi = 0.004*[#   2]+0.004*[#   6]
    |psi|^2 = 0.008
==== e(   9) =     6.48076 eV ==== 
     psi = 0.110*[#   1]+0.110*[#   5]+0.100*[#   3]+0.100*[#   4]+0.100*[#   7]
          +0.100*[#   8]
    |psi|^2 = 0.622
==== e(  10) =     6.77282 eV ==== 
     psi = 0.052*[#   3]+0.052*[#   4]+0.052*[#   7]+0.052*[#   8]+0.035*[#   1]
          +0.035*[#   5]
    |psi|^2 = 0.279

 k =   0.0000000000  0.2309401077  0.0000000000
==== e(   1) =   -20.38904 eV ==== 
     psi = 0.378*[#   1]+0.378*[#   5]+0.057*[#   3]+0.057*[#   4]+0.057*[#   7]
          +0.057*[#   8]
    |psi|^2 = 0.983
==== e(   2) =    -8.33042 eV ==== 
     psi = 0.486*[#   2]+0.486*[#   6]
    |psi|^2 = 0.972
==== e(   3) =    -7.98806 eV ==== 
     psi = 0.214*[#   3]+0.214*[#   4]+0.214*[#   7]+0.214*[#   8]+0.069*[#   1]
          +0.069*[#   5]
    |psi|^2 = 0.994
==== e(   4) =    -6.38433 eV ==== 
     psi = 0.249*[#   3]+0.249*[#   4]+0.249*[#   7]+0.249*[#   8]
    |psi|^2 = 0.997
==== e(   5) =     2.39820 eV ==== 
     psi = 0.010*[#   3]+0.010*[#   4]+0.010*[#   7]+0.010*[#   8]
    |psi|^2 = 0.041
==== e(   6) =     3.41126 eV ==== 
     psi = 0.008*[#   2]+0.008*[#   6]
    |psi|^2 = 0.016
==== e(   7) =     4.24812 eV ==== 

    |psi|^2 = 0.003
==== e(   8) =     6.00571 eV ==== 
     psi = 0.009*[#   2]+0.009*[#   6]
    |psi|^2 = 0.019
==== e(   9) =     6.45630 eV ==== 
     psi = 0.158*[#   1]+0.158*[#   5]+0.122*[#   3]+0.122*[#   4]+0.122*[#   7]
          +0.122*[#   8]
    |psi|^2 = 0.806
==== e(  10) =     6.75039 eV ==== 
     psi = 0.475*[#   2]+0.475*[#   6]
    |psi|^2 = 0.950

 k =   0.0000000000  0.2540341184  0.0000000000
==== e(   1) =   -20.19348 eV ==== 
     psi = 0.364*[#   1]+0.364*[#   5]+0.064*[#   3]+0.064*[#   4]+0.064*[#   7]
          +0.064*[#   8]
    |psi|^2 = 0.982
==== e(   2) =    -8.49463 eV ==== 
     psi = 0.209*[#   3]+0.209*[#   4]+0.209*[#   7]+0.209*[#   8]+0.078*[#   1]
          +0.078*[#   5]
    |psi|^2 = 0.993
==== e(   3) =    -8.09990 eV ==== 
     psi = 0.488*[#   2]+0.488*[#   6]
    |psi|^2 = 0.976
==== e(   4) =    -6.59692 eV ==== 
     psi = 0.249*[#   3]+0.249*[#   4]+0.249*[#   7]+0.249*[#   8]
    |psi|^2 = 0.997
==== e(   5) =     2.66647 eV ==== 
     psi = 0.010*[#   3]+0.010*[#   4]+0.010*[#   7]+0.010*[#   8]
    |psi|^2 = 0.040
==== e(   6) =     3.67705 eV ==== 
     psi = 0.008*[#   2]+0.008*[#   6]
    |psi|^2 = 0.016
==== e(   7) =     4.52250 eV ==== 

    |psi|^2 = 0.003
==== e(   8) =     6.14604 eV ==== 
     psi = 0.288*[#   2]+0.288*[#   6]
    |psi|^2 = 0.577
==== e(   9) =     6.37624 eV ==== 
     psi = 0.194*[#   2]+0.194*[#   6]
    |psi|^2 = 0.387
==== e(  10) =     6.39823 eV ==== 
     psi = 0.187*[#   1]+0.187*[#   5]+0.119*[#   3]+0.119*[#   4]+0.119*[#   7]
          +0.119*[#   8]
    |psi|^2 = 0.851

 k =   0.0000000000  0.2771281292  0.0000000000
==== e(   1) =   -19.97995 eV ==== 
     psi = 0.351*[#   1]+0.351*[#   5]+0.070*[#   3]+0.070*[#   4]+0.070*[#   7]
          +0.070*[#   8]
    |psi|^2 = 0.982
==== e(   2) =    -9.01210 eV ==== 
     psi = 0.204*[#   3]+0.204*[#   4]+0.204*[#   7]+0.204*[#   8]+0.088*[#   1]
          +0.088*[#   5]
    |psi|^2 = 0.993
==== e(   3) =    -7.84960 eV ==== 
     psi = 0.490*[#   2]+0.490*[#   6]
    |psi|^2 = 0.979
==== e(   4) =    -6.80434 eV ==== 
     psi = 0.249*[#   3]+0.249*[#   4]+0.249*[#   7]+0.249*[#   8]
    |psi|^2 = 0.997
==== e(   5) =     2.96006 eV ==== 
     psi = 0.009*[#   3]+0.009*[#   4]+0.009*[#   7]+0.009*[#   8]
    |psi|^2 = 0.038
==== e(   6) =     3.96413 eV ==== 
     psi = 0.009*[#   2]+0.009*[#   6]
    |psi|^2 = 0.018
==== e(   7) =     4.82283 eV ==== 

    |psi|^2 = 0.002
==== e(   8) =     5.69813 eV ==== 
     psi = 0.464*[#   2]+0.464*[#   6]
    |psi|^2 = 0.927
==== e(   9) =     6.32701 eV ==== 
     psi = 0.210*[#   1]+0.210*[#   5]+0.112*[#   3]+0.112*[#   4]+0.112*[#   7]
          +0.112*[#   8]
    |psi|^2 = 0.870
==== e(  10) =     6.60026 eV ==== 
     psi = 0.014*[#   2]+0.014*[#   6]
    |psi|^2 = 0.028

 k =   0.0000000000  0.3002221400  0.0000000000
==== e(   1) =   -19.74876 eV ==== 
     psi = 0.338*[#   1]+0.338*[#   5]+0.076*[#   3]+0.076*[#   4]+0.076*[#   7]
          +0.076*[#   8]
    |psi|^2 = 0.982
==== e(   2) =    -9.53745 eV ==== 
     psi = 0.200*[#   3]+0.200*[#   4]+0.200*[#   7]+0.200*[#   8]+0.096*[#   1]
          +0.096*[#   5]
    |psi|^2 = 0.992
==== e(   3) =    -7.58025 eV ==== 
     psi = 0.491*[#   2]+0.491*[#   6]
    |psi|^2 = 0.983
==== e(   4) =    -7.00463 eV ==== 
     psi = 0.249*[#   3]+0.249*[#   4]+0.249*[#   7]+0.249*[#   8]
    |psi|^2 = 0.997
==== e(   5) =     3.27883 eV ==== 
     psi = 0.009*[#   3]+0.009*[#   4]+0.009*[#   7]+0.009*[#   8]
    |psi|^2 = 0.035
==== e(   6) =     4.26051 eV ==== 
     psi = 0.022*[#   2]+0.022*[#   6]
    |psi|^2 = 0.044
==== e(   7) =     5.14880 eV ==== 

    |psi|^2 = 0.002
==== e(   8) =     5.18538 eV ==== 
     psi = 0.455*[#   2]+0.455*[#   6]
    |psi|^2 = 0.911
==== e(   9) =     6.24960 eV ==== 
     psi = 0.231*[#   1]+0.231*[#   5]+0.105*[#   3]+0.105*[#   4]+0.105*[#   7]
          +0.105*[#   8]
    |psi|^2 = 0.881
==== e(  10) =     6.91310 eV ==== 
     psi = 0.007*[#   2]+0.007*[#   6]
    |psi|^2 = 0.013

 k =   0.0000000000  0.3233161507  0.0000000000
==== e(   1) =   -19.49993 eV ==== 
     psi = 0.326*[#   1]+0.326*[#   5]+0.082*[#   3]+0.082*[#   4]+0.082*[#   7]
          +0.082*[#   8]
    |psi|^2 = 0.982
==== e(   2) =   -10.06604 eV ==== 
     psi = 0.196*[#   3]+0.196*[#   4]+0.196*[#   7]+0.196*[#   8]+0.105*[#   1]
          +0.105*[#   5]
    |psi|^2 = 0.992
==== e(   3) =    -7.29243 eV ==== 
     psi = 0.493*[#   2]+0.493*[#   6]
    |psi|^2 = 0.986
==== e(   4) =    -7.19442 eV ==== 
     psi = 0.249*[#   3]+0.249*[#   4]+0.249*[#   7]+0.249*[#   8]
    |psi|^2 = 0.997
==== e(   5) =     3.62268 eV ==== 
     psi = 0.007*[#   3]+0.007*[#   4]+0.007*[#   7]+0.007*[#   8]
    |psi|^2 = 0.030
==== e(   6) =     4.41010 eV ==== 
     psi = 0.259*[#   2]+0.259*[#   6]
    |psi|^2 = 0.517
==== e(   7) =     4.83140 eV ==== 
     psi = 0.219*[#   2]+0.219*[#   6]
    |psi|^2 = 0.437
==== e(   8) =     5.49954 eV ==== 
     psi = 0.002*[#   1]+0.002*[#   5]
    |psi|^2 = 0.004
==== e(   9) =     6.17246 eV ==== 
     psi = 0.248*[#   1]+0.248*[#   5]+0.098*[#   3]+0.098*[#   4]+0.098*[#   7]
          +0.098*[#   8]
    |psi|^2 = 0.886
==== e(  10) =     7.25537 eV ==== 
     psi = 0.005*[#   2]+0.005*[#   6]
    |psi|^2 = 0.009

 k =   0.0000000000  0.3464101615  0.0000000000
==== e(   1) =   -19.23360 eV ==== 
     psi = 0.315*[#   1]+0.315*[#   5]+0.088*[#   3]+0.088*[#   4]+0.088*[#   7]
          +0.088*[#   8]
    |psi|^2 = 0.982
==== e(   2) =   -10.59534 eV ==== 
     psi = 0.191*[#   3]+0.191*[#   4]+0.191*[#   7]+0.191*[#   8]+0.113*[#   1]
          +0.113*[#   5]
    |psi|^2 = 0.991
==== e(   3) =    -7.37237 eV ==== 
     psi = 0.249*[#   3]+0.249*[#   4]+0.249*[#   7]+0.249*[#   8]
    |psi|^2 = 0.997
==== e(   4) =    -6.98773 eV ==== 
     psi = 0.494*[#   2]+0.494*[#   6]
    |psi|^2 = 0.989
==== e(   5) =     3.98735 eV ==== 
     psi = 0.447*[#   2]+0.447*[#   6]
    |psi|^2 = 0.894
==== e(   6) =     3.99138 eV ==== 
     psi = 0.006*[#   3]+0.006*[#   4]+0.006*[#   7]+0.006*[#   8]
    |psi|^2 = 0.025
==== e(   7) =     5.06756 eV ==== 
     psi = 0.029*[#   2]+0.029*[#   6]
    |psi|^2 = 0.059
==== e(   8) =     5.86661 eV ==== 
     psi = 0.019*[#   1]+0.019*[#   5]+0.003*[#   3]+0.003*[#   4]+0.003*[#   7]
          +0.003*[#   8]
    |psi|^2 = 0.051
==== e(   9) =     6.10557 eV ==== 
     psi = 0.247*[#   1]+0.247*[#   5]+0.088*[#   3]+0.088*[#   4]+0.088*[#   7]
          +0.088*[#   8]
    |psi|^2 = 0.845
==== e(  10) =     7.62356 eV ==== 
     psi = 0.004*[#   2]+0.004*[#   6]
    |psi|^2 = 0.007

 k =   0.0000000000  0.3695041723  0.0000000000
==== e(   1) =   -18.95026 eV ==== 
     psi = 0.305*[#   1]+0.305*[#   5]+0.093*[#   3]+0.093*[#   4]+0.093*[#   7]
          +0.093*[#   8]
    |psi|^2 = 0.982
==== e(   2) =   -11.12239 eV ==== 
     psi = 0.187*[#   3]+0.187*[#   4]+0.187*[#   7]+0.187*[#   8]+0.120*[#   1]
          +0.120*[#   5]
    |psi|^2 = 0.991
==== e(   3) =    -7.53710 eV ==== 
     psi = 0.249*[#   3]+0.249*[#   4]+0.249*[#   7]+0.249*[#   8]
    |psi|^2 = 0.997
==== e(   4) =    -6.66821 eV ==== 
     psi = 0.495*[#   2]+0.495*[#   6]
    |psi|^2 = 0.991
==== e(   5) =     3.44887 eV ==== 
     psi = 0.463*[#   2]+0.463*[#   6]
    |psi|^2 = 0.927
==== e(   6) =     4.38448 eV ==== 
     psi = 0.005*[#   3]+0.005*[#   4]+0.005*[#   7]+0.005*[#   8]
    |psi|^2 = 0.020
==== e(   7) =     5.44323 eV ==== 
     psi = 0.012*[#   2]+0.012*[#   6]
    |psi|^2 = 0.025
==== e(   8) =     5.99768 eV ==== 
     psi = 0.268*[#   1]+0.268*[#   5]+0.077*[#   3]+0.077*[#   4]+0.077*[#   7]
          +0.077*[#   8]
    |psi|^2 = 0.844
==== e(   9) =     6.30361 eV ==== 
     psi = 0.013*[#   1]+0.013*[#   5]+0.008*[#   3]+0.008*[#   4]+0.008*[#   7]
          +0.008*[#   8]
    |psi|^2 = 0.056
==== e(  10) =     8.01652 eV ==== 
     psi = 0.003*[#   2]+0.003*[#   6]
    |psi|^2 = 0.006

 k =   0.0000000000  0.3925981830  0.0000000000
==== e(   1) =   -18.65037 eV ==== 
     psi = 0.296*[#   1]+0.296*[#   5]+0.098*[#   3]+0.098*[#   4]+0.098*[#   7]
          +0.098*[#   8]
    |psi|^2 = 0.983
==== e(   2) =   -11.64479 eV ==== 
     psi = 0.184*[#   3]+0.184*[#   4]+0.184*[#   7]+0.184*[#   8]+0.127*[#   1]
          +0.127*[#   5]
    |psi|^2 = 0.990
==== e(   3) =    -7.68702 eV ==== 
     psi = 0.249*[#   3]+0.249*[#   4]+0.249*[#   7]+0.249*[#   8]
    |psi|^2 = 0.996
==== e(   4) =    -6.33611 eV ==== 
     psi = 0.496*[#   2]+0.496*[#   6]
    |psi|^2 = 0.993
==== e(   5) =     2.90288 eV ==== 
     psi = 0.467*[#   2]+0.467*[#   6]
    |psi|^2 = 0.935
==== e(   6) =     4.80101 eV ==== 
     psi = 0.003*[#   3]+0.003*[#   4]+0.003*[#   7]+0.003*[#   8]+0.002*[#   1]
          +0.002*[#   5]
    |psi|^2 = 0.015
==== e(   7) =     5.85598 eV ==== 
     psi = 0.008*[#   2]+0.008*[#   6]
    |psi|^2 = 0.016
==== e(   8) =     5.93703 eV ==== 
     psi = 0.292*[#   1]+0.292*[#   5]+0.077*[#   3]+0.077*[#   4]+0.077*[#   7]
          +0.077*[#   8]
    |psi|^2 = 0.891
==== e(   9) =     6.72628 eV ==== 
     psi = 0.002*[#   3]+0.002*[#   4]+0.002*[#   7]+0.002*[#   8]+0.002*[#   1]
          +0.002*[#   5]
    |psi|^2 = 0.013
==== e(  10) =     8.43385 eV ==== 
     psi = 0.003*[#   2]+0.003*[#   6]
    |psi|^2 = 0.005

 k =   0.0000000000  0.4156921938  0.0000000000
==== e(   1) =   -18.33468 eV ==== 
     psi = 0.288*[#   1]+0.288*[#   5]+0.102*[#   3]+0.102*[#   4]+0.102*[#   7]
          +0.102*[#   8]
    |psi|^2 = 0.983
==== e(   2) =   -12.16054 eV ==== 
     psi = 0.180*[#   3]+0.180*[#   4]+0.180*[#   7]+0.180*[#   8]+0.134*[#   1]
          +0.134*[#   5]
    |psi|^2 = 0.989
==== e(   3) =    -7.82257 eV ==== 
     psi = 0.249*[#   3]+0.249*[#   4]+0.249*[#   7]+0.249*[#   8]
    |psi|^2 = 0.996
==== e(   4) =    -5.99430 eV ==== 
     psi = 0.497*[#   2]+0.497*[#   6]
    |psi|^2 = 0.994
==== e(   5) =     2.36285 eV ==== 
     psi = 0.469*[#   2]+0.469*[#   6]
    |psi|^2 = 0.939
==== e(   6) =     5.23708 eV ==== 
     psi = 0.007*[#   1]+0.007*[#   5]
    |psi|^2 = 0.018
==== e(   7) =     5.88001 eV ==== 
     psi = 0.299*[#   1]+0.299*[#   5]+0.074*[#   3]+0.074*[#   4]+0.074*[#   7]
          +0.074*[#   8]
    |psi|^2 = 0.893
==== e(   8) =     6.29635 eV ==== 
     psi = 0.006*[#   2]+0.006*[#   6]
    |psi|^2 = 0.011
==== e(   9) =     7.18150 eV ==== 
     psi = 0.001*[#   3]+0.001*[#   4]+0.001*[#   7]+0.001*[#   8]
    |psi|^2 = 0.006
==== e(  10) =     8.87478 eV ==== 
     psi = 0.002*[#   2]+0.002*[#   6]
    |psi|^2 = 0.005

 k =   0.0000000000  0.4387862046  0.0000000000
==== e(   1) =   -18.00360 eV ==== 
     psi = 0.281*[#   1]+0.281*[#   5]+0.106*[#   3]+0.106*[#   4]+0.106*[#   7]
          +0.106*[#   8]
    |psi|^2 = 0.984
==== e(   2) =   -12.66725 eV ==== 
     psi = 0.177*[#   3]+0.177*[#   4]+0.177*[#   7]+0.177*[#   8]+0.140*[#   1]
          +0.140*[#   5]
    |psi|^2 = 0.989
==== e(   3) =    -7.94076 eV ==== 
     psi = 0.249*[#   3]+0.249*[#   4]+0.249*[#   7]+0.249*[#   8]
    |psi|^2 = 0.996
==== e(   4) =    -5.64742 eV ==== 
     psi = 0.498*[#   2]+0.498*[#   6]
    |psi|^2 = 0.996
==== e(   5) =     1.83917 eV ==== 
     psi = 0.471*[#   2]+0.471*[#   6]
    |psi|^2 = 0.941
==== e(   6) =     5.64932 eV ==== 
     psi = 0.101*[#   1]+0.101*[#   5]+0.009*[#   3]+0.009*[#   4]+0.009*[#   7]
          +0.009*[#   8]
    |psi|^2 = 0.237
==== e(   7) =     5.87733 eV ==== 
     psi = 0.216*[#   1]+0.216*[#   5]+0.060*[#   3]+0.060*[#   4]+0.060*[#   7]
          +0.060*[#   8]
    |psi|^2 = 0.673
==== e(   8) =     6.76209 eV ==== 
     psi = 0.005*[#   2]+0.005*[#   6]
    |psi|^2 = 0.009
==== e(   9) =     7.66380 eV ==== 

    |psi|^2 = 0.004
==== e(  10) =     9.33842 eV ==== 
     psi = 0.002*[#   2]+0.002*[#   6]
    |psi|^2 = 0.005

 k =   0.0000000000  0.4618802154  0.0000000000
==== e(   1) =   -17.65866 eV ==== 
     psi = 0.275*[#   1]+0.275*[#   5]+0.109*[#   3]+0.109*[#   4]+0.109*[#   7]
          +0.109*[#   8]
    |psi|^2 = 0.985
==== e(   2) =   -13.16260 eV ==== 
     psi = 0.175*[#   3]+0.175*[#   4]+0.175*[#   7]+0.175*[#   8]+0.144*[#   1]
          +0.144*[#   5]
    |psi|^2 = 0.988
==== e(   3) =    -8.04206 eV ==== 
     psi = 0.249*[#   3]+0.249*[#   4]+0.249*[#   7]+0.249*[#   8]
    |psi|^2 = 0.996
==== e(   4) =    -5.30265 eV ==== 
     psi = 0.498*[#   2]+0.498*[#   6]
    |psi|^2 = 0.996
==== e(   5) =     1.34078 eV ==== 
     psi = 0.471*[#   2]+0.471*[#   6]
    |psi|^2 = 0.943
==== e(   6) =     5.72784 eV ==== 
     psi = 0.310*[#   1]+0.310*[#   5]+0.052*[#   3]+0.052*[#   4]+0.052*[#   7]
          +0.052*[#   8]
    |psi|^2 = 0.831
==== e(   7) =     6.24044 eV ==== 
     psi = 0.015*[#   1]+0.015*[#   5]+0.012*[#   3]+0.012*[#   4]+0.012*[#   7]
          +0.012*[#   8]
    |psi|^2 = 0.078
==== e(   8) =     7.25183 eV ==== 
     psi = 0.004*[#   2]+0.004*[#   6]
    |psi|^2 = 0.008
==== e(   9) =     8.17237 eV ==== 

    |psi|^2 = 0.002
==== e(  10) =     9.82347 eV ==== 
     psi = 0.002*[#   2]+0.002*[#   6]
    |psi|^2 = 0.005

 k =   0.0000000000  0.4849742261  0.0000000000
==== e(   1) =   -17.30219 eV ==== 
     psi = 0.271*[#   1]+0.271*[#   5]+0.111*[#   3]+0.111*[#   4]+0.111*[#   7]
          +0.111*[#   8]
    |psi|^2 = 0.986
==== e(   2) =   -13.64347 eV ==== 
     psi = 0.173*[#   3]+0.173*[#   4]+0.173*[#   7]+0.173*[#   8]+0.147*[#   1]
          +0.147*[#   5]
    |psi|^2 = 0.987
==== e(   3) =    -8.12575 eV ==== 
     psi = 0.249*[#   3]+0.249*[#   4]+0.249*[#   7]+0.249*[#   8]
    |psi|^2 = 0.996
==== e(   4) =    -4.97015 eV ==== 
     psi = 0.498*[#   2]+0.498*[#   6]
    |psi|^2 = 0.997
==== e(   5) =     0.88039 eV ==== 
     psi = 0.472*[#   2]+0.472*[#   6]
    |psi|^2 = 0.945
==== e(   6) =     5.69688 eV ==== 
     psi = 0.330*[#   1]+0.330*[#   5]+0.055*[#   3]+0.055*[#   4]+0.055*[#   7]
          +0.055*[#   8]
    |psi|^2 = 0.878
==== e(   7) =     6.74471 eV ==== 
     psi = 0.005*[#   3]+0.005*[#   4]+0.005*[#   7]+0.005*[#   8]+0.003*[#   1]
          +0.003*[#   5]
    |psi|^2 = 0.029
==== e(   8) =     7.76459 eV ==== 
     psi = 0.004*[#   2]+0.004*[#   6]
    |psi|^2 = 0.007
==== e(   9) =     8.70690 eV ==== 

    |psi|^2 = 0.002
==== e(  10) =    10.32698 eV ==== 
     psi = 0.003*[#   2]+0.003*[#   6]
    |psi|^2 = 0.005

 k =   0.0000000000  0.5080682369  0.0000000000
==== e(   1) =   -16.93895 eV ==== 
     psi = 0.270*[#   1]+0.270*[#   5]+0.112*[#   3]+0.112*[#   4]+0.112*[#   7]
          +0.112*[#   8]
    |psi|^2 = 0.987
==== e(   2) =   -14.10440 eV ==== 
     psi = 0.173*[#   3]+0.173*[#   4]+0.173*[#   7]+0.173*[#   8]+0.147*[#   1]
          +0.147*[#   5]
    |psi|^2 = 0.986
==== e(   3) =    -8.19113 eV ==== 
     psi = 0.249*[#   3]+0.249*[#   4]+0.249*[#   7]+0.249*[#   8]
    |psi|^2 = 0.996
==== e(   4) =    -4.66577 eV ==== 
     psi = 0.499*[#   2]+0.499*[#   6]
    |psi|^2 = 0.997
==== e(   5) =     0.47493 eV ==== 
     psi = 0.473*[#   2]+0.473*[#   6]
    |psi|^2 = 0.946
==== e(   6) =     5.66633 eV ==== 
     psi = 0.337*[#   1]+0.337*[#   5]+0.054*[#   3]+0.054*[#   4]+0.054*[#   7]
          +0.054*[#   8]
    |psi|^2 = 0.889
==== e(   7) =     7.28054 eV ==== 
     psi = 0.003*[#   3]+0.003*[#   4]+0.003*[#   7]+0.003*[#   8]+0.001*[#   1]
          +0.001*[#   5]
    |psi|^2 = 0.016
==== e(   8) =     8.29907 eV ==== 
     psi = 0.004*[#   2]+0.004*[#   6]
    |psi|^2 = 0.007
==== e(   9) =     9.26712 eV ==== 

    |psi|^2 = 0.001
==== e(  10) =    10.83820 eV ==== 
     psi = 0.004*[#   2]+0.004*[#   6]
    |psi|^2 = 0.007

 k =   0.0000000000  0.5311622477  0.0000000000
==== e(   1) =   -16.58032 eV ==== 
     psi = 0.276*[#   1]+0.276*[#   5]+0.109*[#   3]+0.109*[#   4]+0.109*[#   7]
          +0.109*[#   8]
    |psi|^2 = 0.989
==== e(   2) =   -14.53295 eV ==== 
     psi = 0.175*[#   3]+0.175*[#   4]+0.175*[#   7]+0.175*[#   8]+0.141*[#   1]
          +0.141*[#   5]
    |psi|^2 = 0.984
==== e(   3) =    -8.23810 eV ==== 
     psi = 0.249*[#   3]+0.249*[#   4]+0.249*[#   7]+0.249*[#   8]
    |psi|^2 = 0.996
==== e(   4) =    -4.41220 eV ==== 
     psi = 0.499*[#   2]+0.499*[#   6]
    |psi|^2 = 0.998
==== e(   5) =     0.14886 eV ==== 
     psi = 0.473*[#   2]+0.473*[#   6]
    |psi|^2 = 0.946
==== e(   6) =     5.64294 eV ==== 
     psi = 0.342*[#   1]+0.342*[#   5]+0.052*[#   3]+0.052*[#   4]+0.052*[#   7]
          +0.052*[#   8]
    |psi|^2 = 0.894
==== e(   7) =     7.84061 eV ==== 
     psi = 0.002*[#   3]+0.002*[#   4]+0.002*[#   7]+0.002*[#   8]+0.001*[#   1]
          +0.001*[#   5]
    |psi|^2 = 0.011
==== e(   8) =     8.85333 eV ==== 
     psi = 0.004*[#   2]+0.004*[#   6]
    |psi|^2 = 0.008
==== e(   9) =     9.85224 eV ==== 

    |psi|^2 = 0.002
==== e(  10) =    10.29301 eV ==== 
     psi = 0.005*[#   1]+0.005*[#   5]+0.002*[#   3]+0.002*[#   4]+0.002*[#   7]
          +0.002*[#   8]
    |psi|^2 = 0.018

 k =   0.0000000000  0.5542562584  0.0000000000
==== e(   1) =   -16.26253 eV ==== 
     psi = 0.293*[#   1]+0.293*[#   5]+0.101*[#   3]+0.101*[#   4]+0.101*[#   7]
          +0.101*[#   8]
    |psi|^2 = 0.991
==== e(   2) =   -14.89261 eV ==== 
     psi = 0.183*[#   3]+0.183*[#   4]+0.183*[#   7]+0.183*[#   8]+0.124*[#   1]
          +0.124*[#   5]
    |psi|^2 = 0.981
==== e(   3) =    -8.26620 eV ==== 
     psi = 0.249*[#   3]+0.249*[#   4]+0.249*[#   7]+0.249*[#   8]
    |psi|^2 = 0.996
==== e(   4) =    -4.23965 eV ==== 
     psi = 0.499*[#   2]+0.499*[#   6]
    |psi|^2 = 0.998
==== e(   5) =    -0.06705 eV ==== 
     psi = 0.473*[#   2]+0.473*[#   6]
    |psi|^2 = 0.947
==== e(   6) =     5.62877 eV ==== 
     psi = 0.345*[#   1]+0.345*[#   5]+0.051*[#   3]+0.051*[#   4]+0.051*[#   7]
          +0.051*[#   8]
    |psi|^2 = 0.896
==== e(   7) =     8.42174 eV ==== 
     psi = 0.002*[#   1]+0.001*[#   3]+0.001*[#   4]+0.002*[#   5]+0.001*[#   7]
          +0.001*[#   8]
    |psi|^2 = 0.009
==== e(   8) =     9.42221 eV ==== 
     psi = 0.005*[#   2]+0.005*[#   6]
    |psi|^2 = 0.010
==== e(   9) =     9.65563 eV ==== 
     psi = 0.003*[#   1]+0.003*[#   5]+0.001*[#   3]+0.001*[#   4]+0.001*[#   7]
          +0.001*[#   8]
    |psi|^2 = 0.012
==== e(  10) =    10.46523 eV ==== 

    |psi|^2 = 0.002

 k =   0.0000000000 -0.5773502692  0.0000000000
==== e(   1) =   -16.10966 eV ==== 
     psi = 0.311*[#   1]+0.311*[#   5]+0.093*[#   3]+0.093*[#   4]+0.093*[#   7]
          +0.093*[#   8]
    |psi|^2 = 0.994
==== e(   2) =   -15.05924 eV ==== 
     psi = 0.192*[#   3]+0.192*[#   4]+0.192*[#   7]+0.192*[#   8]+0.105*[#   1]
          +0.105*[#   5]
    |psi|^2 = 0.979
==== e(   3) =    -8.27542 eV ==== 
     psi = 0.249*[#   3]+0.249*[#   4]+0.249*[#   7]+0.249*[#   8]
    |psi|^2 = 0.996
==== e(   4) =    -4.17781 eV ==== 
     psi = 0.499*[#   2]+0.499*[#   6]
    |psi|^2 = 0.998
==== e(   5) =    -0.14359 eV ==== 
     psi = 0.473*[#   2]+0.473*[#   6]
    |psi|^2 = 0.947
==== e(   6) =     5.62400 eV ==== 
     psi = 0.346*[#   1]+0.346*[#   5]+0.051*[#   3]+0.051*[#   4]+0.051*[#   7]
          +0.051*[#   8]
    |psi|^2 = 0.896
==== e(   7) =     8.95850 eV ==== 
     psi = 0.004*[#   1]+0.004*[#   5]
    |psi|^2 = 0.009
==== e(   8) =     9.10084 eV ==== 
     psi = 0.002*[#   3]+0.002*[#   4]+0.002*[#   7]+0.002*[#   8]
    |psi|^2 = 0.010
==== e(   9) =     9.89982 eV ==== 
     psi = 0.009*[#   2]+0.009*[#   6]
    |psi|^2 = 0.018
==== e(  10) =    10.15351 eV ==== 

    |psi|^2 = 0.000

 k =   0.0200000000  0.0346410162  0.0000000000
==== e(   1) =   -21.29783 eV ==== 
     psi = 0.487*[#   1]+0.487*[#   5]+0.003*[#   3]+0.003*[#   4]+0.003*[#   7]
          +0.003*[#   8]
    |psi|^2 = 0.985
==== e(   2) =    -9.41460 eV ==== 
     psi = 0.476*[#   2]+0.476*[#   6]
    |psi|^2 = 0.951
==== e(   3) =    -5.01577 eV ==== 
     psi = 0.248*[#   3]+0.248*[#   4]+0.248*[#   7]+0.248*[#   8]+0.003*[#   1]
          +0.003*[#   5]
    |psi|^2 = 0.997
==== e(   4) =    -4.96015 eV ==== 
     psi = 0.249*[#   3]+0.249*[#   4]+0.249*[#   7]+0.249*[#   8]
    |psi|^2 = 0.997
==== e(   5) =     1.15751 eV ==== 
     psi = 0.003*[#   1]+0.003*[#   5]
    |psi|^2 = 0.010
==== e(   6) =     2.16916 eV ==== 
     psi = 0.014*[#   2]+0.014*[#   6]
    |psi|^2 = 0.027
==== e(   7) =     2.97992 eV ==== 

    |psi|^2 = 0.001
==== e(   8) =     4.77249 eV ==== 
     psi = 0.005*[#   2]+0.005*[#   6]
    |psi|^2 = 0.011
==== e(   9) =     5.69478 eV ==== 
     psi = 0.001*[#   1]+0.001*[#   5]
    |psi|^2 = 0.002
==== e(  10) =     6.59921 eV ==== 
     psi = 0.234*[#   3]+0.234*[#   4]+0.234*[#   7]+0.234*[#   8]+0.006*[#   1]
          +0.006*[#   5]
    |psi|^2 = 0.947

 k =   0.0200000000  0.0577350269  0.0000000000
==== e(   1) =   -21.26021 eV ==== 
     psi = 0.480*[#   1]+0.480*[#   5]+0.006*[#   3]+0.006*[#   4]+0.006*[#   7]
          +0.006*[#   8]
    |psi|^2 = 0.985
==== e(   2) =    -9.36948 eV ==== 
     psi = 0.476*[#   2]+0.476*[#   6]
    |psi|^2 = 0.952
==== e(   3) =    -5.16750 eV ==== 
     psi = 0.246*[#   3]+0.246*[#   4]+0.246*[#   7]+0.246*[#   8]+0.007*[#   1]
          +0.007*[#   5]
    |psi|^2 = 0.997
==== e(   4) =    -5.04206 eV ==== 
     psi = 0.249*[#   3]+0.249*[#   4]+0.249*[#   7]+0.249*[#   8]
    |psi|^2 = 0.997
==== e(   5) =     1.20868 eV ==== 
     psi = 0.002*[#   1]+0.002*[#   5]+0.002*[#   3]+0.002*[#   4]+0.002*[#   7]
          +0.002*[#   8]
    |psi|^2 = 0.013
==== e(   6) =     2.22060 eV ==== 
     psi = 0.013*[#   2]+0.013*[#   6]
    |psi|^2 = 0.027
==== e(   7) =     3.03222 eV ==== 

    |psi|^2 = 0.002
==== e(   8) =     4.82390 eV ==== 
     psi = 0.005*[#   2]+0.005*[#   6]
    |psi|^2 = 0.010
==== e(   9) =     5.74478 eV ==== 
     psi = 0.001*[#   1]+0.001*[#   5]
    |psi|^2 = 0.003
==== e(  10) =     6.62330 eV ==== 
     psi = 0.229*[#   3]+0.229*[#   4]+0.229*[#   7]+0.229*[#   8]+0.013*[#   1]
          +0.013*[#   5]
    |psi|^2 = 0.940

 k =   0.0200000000  0.0808290377  0.0000000000
==== e(   1) =   -21.20374 eV ==== 
     psi = 0.470*[#   1]+0.470*[#   5]+0.011*[#   3]+0.011*[#   4]+0.011*[#   7]
          +0.011*[#   8]
    |psi|^2 = 0.985
==== e(   2) =    -9.30162 eV ==== 
     psi = 0.477*[#   2]+0.477*[#   6]
    |psi|^2 = 0.954
==== e(   3) =    -5.38753 eV ==== 
     psi = 0.243*[#   3]+0.243*[#   4]+0.243*[#   7]+0.243*[#   8]+0.012*[#   1]
          +0.012*[#   5]
    |psi|^2 = 0.997
==== e(   4) =    -5.15925 eV ==== 
     psi = 0.249*[#   3]+0.249*[#   4]+0.249*[#   7]+0.249*[#   8]
    |psi|^2 = 0.997
==== e(   5) =     1.28545 eV ==== 
     psi = 0.004*[#   3]+0.004*[#   4]+0.004*[#   7]+0.004*[#   8]+0.002*[#   1]
          +0.002*[#   5]
    |psi|^2 = 0.018
==== e(   6) =     2.29776 eV ==== 
     psi = 0.013*[#   2]+0.013*[#   6]
    |psi|^2 = 0.026
==== e(   7) =     3.11067 eV ==== 

    |psi|^2 = 0.002
==== e(   8) =     4.90104 eV ==== 
     psi = 0.005*[#   2]+0.005*[#   6]
    |psi|^2 = 0.010
==== e(   9) =     5.81981 eV ==== 
     psi = 0.001*[#   1]+0.001*[#   5]
    |psi|^2 = 0.004
==== e(  10) =     6.65186 eV ==== 
     psi = 0.221*[#   3]+0.221*[#   4]+0.221*[#   7]+0.221*[#   8]+0.024*[#   1]
          +0.024*[#   5]
    |psi|^2 = 0.932

 k =   0.0200000000  0.1039230485  0.0000000000
==== e(   1) =   -21.12850 eV ==== 
     psi = 0.458*[#   1]+0.458*[#   5]+0.017*[#   3]+0.017*[#   4]+0.017*[#   7]
          +0.017*[#   8]
    |psi|^2 = 0.984
==== e(   2) =    -9.21131 eV ==== 
     psi = 0.478*[#   2]+0.478*[#   6]
    |psi|^2 = 0.956
==== e(   3) =    -5.67028 eV ==== 
     psi = 0.240*[#   3]+0.240*[#   4]+0.240*[#   7]+0.240*[#   8]+0.019*[#   1]
          +0.019*[#   5]
    |psi|^2 = 0.997
==== e(   4) =    -5.30757 eV ==== 
     psi = 0.249*[#   3]+0.249*[#   4]+0.249*[#   7]+0.249*[#   8]
    |psi|^2 = 0.997
==== e(   5) =     1.38782 eV ==== 
     psi = 0.005*[#   3]+0.005*[#   4]+0.005*[#   7]+0.005*[#   8]+0.001*[#   1]
          +0.001*[#   5]
    |psi|^2 = 0.024
==== e(   6) =     2.40060 eV ==== 
     psi = 0.012*[#   2]+0.012*[#   6]
    |psi|^2 = 0.025
==== e(   7) =     3.21528 eV ==== 

    |psi|^2 = 0.002
==== e(   8) =     5.00384 eV ==== 
     psi = 0.005*[#   2]+0.005*[#   6]
    |psi|^2 = 0.010
==== e(   9) =     5.91951 eV ==== 
     psi = 0.002*[#   1]+0.002*[#   5]
    |psi|^2 = 0.005
==== e(  10) =     6.67725 eV ==== 
     psi = 0.211*[#   3]+0.211*[#   4]+0.211*[#   7]+0.211*[#   8]+0.039*[#   1]
          +0.039*[#   5]
    |psi|^2 = 0.922

 k =   0.0200000000  0.1270170592  0.0000000000
==== e(   1) =   -21.03458 eV ==== 
     psi = 0.445*[#   1]+0.445*[#   5]+0.024*[#   3]+0.024*[#   4]+0.024*[#   7]
          +0.024*[#   8]
    |psi|^2 = 0.984
==== e(   2) =    -9.09879 eV ==== 
     psi = 0.479*[#   2]+0.479*[#   6]
    |psi|^2 = 0.958
==== e(   3) =    -6.00752 eV ==== 
     psi = 0.236*[#   3]+0.236*[#   4]+0.236*[#   7]+0.236*[#   8]+0.027*[#   1]
          +0.027*[#   5]
    |psi|^2 = 0.997
==== e(   4) =    -5.47992 eV ==== 
     psi = 0.249*[#   3]+0.249*[#   4]+0.249*[#   7]+0.249*[#   8]
    |psi|^2 = 0.997
==== e(   5) =     1.51579 eV ==== 
     psi = 0.007*[#   3]+0.007*[#   4]+0.007*[#   7]+0.007*[#   8]
    |psi|^2 = 0.029
==== e(   6) =     2.52903 eV ==== 
     psi = 0.012*[#   2]+0.012*[#   6]
    |psi|^2 = 0.024
==== e(   7) =     3.34604 eV ==== 

    |psi|^2 = 0.003
==== e(   8) =     5.13229 eV ==== 
     psi = 0.005*[#   2]+0.005*[#   6]
    |psi|^2 = 0.009
==== e(   9) =     6.04323 eV ==== 
     psi = 0.003*[#   1]+0.003*[#   5]+0.001*[#   3]+0.001*[#   4]+0.001*[#   7]
          +0.001*[#   8]
    |psi|^2 = 0.010
==== e(  10) =     6.69310 eV ==== 
     psi = 0.198*[#   3]+0.198*[#   4]+0.198*[#   7]+0.198*[#   8]+0.058*[#   1]
          +0.058*[#   5]
    |psi|^2 = 0.909

 k =   0.0200000000  0.1501110700  0.0000000000
==== e(   1) =   -20.92196 eV ==== 
     psi = 0.430*[#   1]+0.430*[#   5]+0.031*[#   3]+0.031*[#   4]+0.031*[#   7]
          +0.031*[#   8]
    |psi|^2 = 0.984
==== e(   2) =    -8.96402 eV ==== 
     psi = 0.480*[#   2]+0.480*[#   6]
    |psi|^2 = 0.961
==== e(   3) =    -6.39156 eV ==== 
     psi = 0.231*[#   3]+0.231*[#   4]+0.231*[#   7]+0.231*[#   8]+0.036*[#   1]
          +0.036*[#   5]
    |psi|^2 = 0.996
==== e(   4) =    -5.67141 eV ==== 
     psi = 0.249*[#   3]+0.249*[#   4]+0.249*[#   7]+0.249*[#   8]
    |psi|^2 = 0.997
==== e(   5) =     1.66934 eV ==== 
     psi = 0.008*[#   3]+0.008*[#   4]+0.008*[#   7]+0.008*[#   8]
    |psi|^2 = 0.034
==== e(   6) =     2.68304 eV ==== 
     psi = 0.011*[#   2]+0.011*[#   6]
    |psi|^2 = 0.022
==== e(   7) =     3.50296 eV ==== 

    |psi|^2 = 0.003
==== e(   8) =     5.28607 eV ==== 
     psi = 0.004*[#   2]+0.004*[#   6]
    |psi|^2 = 0.008
==== e(   9) =     6.18864 eV ==== 
     psi = 0.005*[#   1]+0.005*[#   5]+0.003*[#   3]+0.003*[#   4]+0.003*[#   7]
          +0.003*[#   8]
    |psi|^2 = 0.023
==== e(  10) =     6.69763 eV ==== 
     psi = 0.183*[#   3]+0.183*[#   4]+0.183*[#   7]+0.183*[#   8]+0.077*[#   1]
          +0.077*[#   5]
    |psi|^2 = 0.888

 k =   0.0200000000  0.1732050808  0.0000000000
==== e(   1) =   -20.79070 eV ==== 
     psi = 0.415*[#   1]+0.415*[#   5]+0.038*[#   3]+0.038*[#   4]+0.038*[#   7]
          +0.038*[#   8]
    |psi|^2 = 0.983
==== e(   2) =    -8.80717 eV ==== 
     psi = 0.482*[#   2]+0.482*[#   6]
    |psi|^2 = 0.964
==== e(   3) =    -6.81353 eV ==== 
     psi = 0.226*[#   3]+0.226*[#   4]+0.226*[#   7]+0.226*[#   8]+0.045*[#   1]
          +0.045*[#   5]
    |psi|^2 = 0.996
==== e(   4) =    -5.87571 eV ==== 
     psi = 0.249*[#   3]+0.249*[#   4]+0.249*[#   7]+0.249*[#   8]
    |psi|^2 = 0.997
==== e(   5) =     1.84845 eV ==== 
     psi = 0.009*[#   3]+0.009*[#   4]+0.009*[#   7]+0.009*[#   8]
    |psi|^2 = 0.038
==== e(   6) =     2.86250 eV ==== 
     psi = 0.010*[#   2]+0.010*[#   6]
    |psi|^2 = 0.020
==== e(   7) =     3.68603 eV ==== 

    |psi|^2 = 0.003
==== e(   8) =     5.46553 eV ==== 
     psi = 0.004*[#   2]+0.004*[#   6]
    |psi|^2 = 0.008
==== e(   9) =     6.34846 eV ==== 
     psi = 0.015*[#   1]+0.015*[#   5]+0.012*[#   3]+0.012*[#   4]+0.012*[#   7]
          +0.012*[#   8]
    |psi|^2 = 0.078
==== e(  10) =     6.69725 eV ==== 
     psi = 0.161*[#   3]+0.161*[#   4]+0.161*[#   7]+0.161*[#   8]+0.092*[#   1]
          +0.092*[#   5]
    |psi|^2 = 0.827

 k =   0.0200000000  0.1962990915  0.0000000000
==== e(   1) =   -20.64099 eV ==== 
     psi = 0.400*[#   1]+0.400*[#   5]+0.046*[#   3]+0.046*[#   4]+0.046*[#   7]
          +0.046*[#   8]
    |psi|^2 = 0.983
==== e(   2) =    -8.62889 eV ==== 
     psi = 0.484*[#   2]+0.484*[#   6]
    |psi|^2 = 0.967
==== e(   3) =    -7.26729 eV ==== 
     psi = 0.221*[#   3]+0.221*[#   4]+0.221*[#   7]+0.221*[#   8]+0.055*[#   1]
          +0.055*[#   5]
    |psi|^2 = 0.995
==== e(   4) =    -6.08798 eV ==== 
     psi = 0.249*[#   3]+0.249*[#   4]+0.249*[#   7]+0.249*[#   8]
    |psi|^2 = 0.997
==== e(   5) =     2.05309 eV ==== 
     psi = 0.010*[#   3]+0.010*[#   4]+0.010*[#   7]+0.010*[#   8]
    |psi|^2 = 0.040
==== e(   6) =     3.06721 eV ==== 
     psi = 0.009*[#   2]+0.009*[#   6]
    |psi|^2 = 0.019
==== e(   7) =     3.89522 eV ==== 

    |psi|^2 = 0.003
==== e(   8) =     5.66915 eV ==== 
     psi = 0.004*[#   2]+0.004*[#   6]
    |psi|^2 = 0.008
==== e(   9) =     6.48296 eV ==== 
     psi = 0.062*[#   1]+0.062*[#   5]+0.059*[#   3]+0.059*[#   4]+0.059*[#   7]
          +0.059*[#   8]
    |psi|^2 = 0.359
==== e(  10) =     6.72962 eV ==== 
     psi = 0.101*[#   3]+0.101*[#   4]+0.101*[#   7]+0.101*[#   8]+0.069*[#   1]
          +0.069*[#   5]
    |psi|^2 = 0.542

 k =   0.0200000000  0.2193931023  0.0000000000
==== e(   1) =   -20.47296 eV ==== 
     psi = 0.385*[#   1]+0.385*[#   5]+0.053*[#   3]+0.053*[#   4]+0.053*[#   7]
          +0.053*[#   8]
    |psi|^2 = 0.983
==== e(   2) =    -8.42955 eV ==== 
     psi = 0.485*[#   2]+0.485*[#   6]
    |psi|^2 = 0.971
==== e(   3) =    -7.74587 eV ==== 
     psi = 0.216*[#   3]+0.216*[#   4]+0.216*[#   7]+0.216*[#   8]+0.064*[#   1]
          +0.064*[#   5]
    |psi|^2 = 0.994
==== e(   4) =    -6.30387 eV ==== 
     psi = 0.249*[#   3]+0.249*[#   4]+0.249*[#   7]+0.249*[#   8]
    |psi|^2 = 0.997
==== e(   5) =     2.28322 eV ==== 
     psi = 0.010*[#   3]+0.010*[#   4]+0.010*[#   7]+0.010*[#   8]
    |psi|^2 = 0.041
==== e(   6) =     3.29687 eV ==== 
     psi = 0.008*[#   2]+0.008*[#   6]
    |psi|^2 = 0.017
==== e(   7) =     4.13052 eV ==== 

    |psi|^2 = 0.003
==== e(   8) =     5.89598 eV ==== 
     psi = 0.006*[#   2]+0.006*[#   6]
    |psi|^2 = 0.012
==== e(   9) =     6.50939 eV ==== 
     psi = 0.134*[#   1]+0.134*[#   5]+0.115*[#   3]+0.115*[#   4]+0.115*[#   7]
          +0.115*[#   8]
    |psi|^2 = 0.727
==== e(  10) =     6.88297 eV ==== 
     psi = 0.032*[#   3]+0.032*[#   4]+0.032*[#   7]+0.032*[#   8]+0.021*[#   1]
          +0.021*[#   5]+0.010*[#   2]+0.010*[#   6]
    |psi|^2 = 0.189

 k =   0.0200000000  0.2424871131  0.0000000000
==== e(   1) =   -20.28653 eV ==== 
     psi = 0.370*[#   1]+0.370*[#   5]+0.060*[#   3]+0.060*[#   4]+0.060*[#   7]
          +0.060*[#   8]
    |psi|^2 = 0.982
==== e(   2) =    -8.24338 eV ==== 
     psi = 0.212*[#   3]+0.212*[#   4]+0.212*[#   7]+0.212*[#   8]+0.074*[#   1]
          +0.074*[#   5]
    |psi|^2 = 0.994
==== e(   3) =    -8.20937 eV ==== 
     psi = 0.487*[#   2]+0.487*[#   6]
    |psi|^2 = 0.974
==== e(   4) =    -6.51896 eV ==== 
     psi = 0.249*[#   3]+0.249*[#   4]+0.249*[#   7]+0.249*[#   8]
    |psi|^2 = 0.997
==== e(   5) =     2.53879 eV ==== 
     psi = 0.010*[#   3]+0.010*[#   4]+0.010*[#   7]+0.010*[#   8]
    |psi|^2 = 0.041
==== e(   6) =     3.55091 eV ==== 
     psi = 0.008*[#   2]+0.008*[#   6]
    |psi|^2 = 0.016
==== e(   7) =     4.39191 eV ==== 

    |psi|^2 = 0.003
==== e(   8) =     6.12917 eV ==== 
     psi = 0.037*[#   2]+0.037*[#   6]
    |psi|^2 = 0.075
==== e(   9) =     6.46731 eV ==== 
     psi = 0.171*[#   1]+0.171*[#   5]+0.122*[#   3]+0.122*[#   4]+0.122*[#   7]
          +0.122*[#   8]
    |psi|^2 = 0.830
==== e(  10) =     6.50410 eV ==== 
     psi = 0.446*[#   2]+0.446*[#   6]
    |psi|^2 = 0.892

 k =   0.0200000000  0.2655811238  0.0000000000
==== e(   1) =   -20.08201 eV ==== 
     psi = 0.357*[#   1]+0.357*[#   5]+0.067*[#   3]+0.067*[#   4]+0.067*[#   7]
          +0.067*[#   8]
    |psi|^2 = 0.982
==== e(   2) =    -8.75455 eV ==== 
     psi = 0.207*[#   3]+0.207*[#   4]+0.207*[#   7]+0.207*[#   8]+0.083*[#   1]
          +0.083*[#   5]
    |psi|^2 = 0.993
==== e(   3) =    -7.96899 eV ==== 
     psi = 0.489*[#   2]+0.489*[#   6]
    |psi|^2 = 0.978
==== e(   4) =    -6.73031 eV ==== 
     psi = 0.249*[#   3]+0.249*[#   4]+0.249*[#   7]+0.249*[#   8]
    |psi|^2 = 0.997
==== e(   5) =     2.81974 eV ==== 
     psi = 0.010*[#   3]+0.010*[#   4]+0.010*[#   7]+0.010*[#   8]
    |psi|^2 = 0.039
==== e(   6) =     3.82789 eV ==== 
     psi = 0.008*[#   2]+0.008*[#   6]
    |psi|^2 = 0.016
==== e(   7) =     4.67929 eV ==== 

    |psi|^2 = 0.002
==== e(   8) =     5.93614 eV ==== 
     psi = 0.450*[#   2]+0.450*[#   6]
    |psi|^2 = 0.900
==== e(   9) =     6.40338 eV ==== 
     psi = 0.197*[#   1]+0.197*[#   5]+0.117*[#   3]+0.117*[#   4]+0.117*[#   7]
          +0.117*[#   8]
    |psi|^2 = 0.860
==== e(  10) =     6.46810 eV ==== 
     psi = 0.030*[#   2]+0.030*[#   6]
    |psi|^2 = 0.060

 k =   0.0200000000  0.2886751346  0.0000000000
==== e(   1) =   -19.85964 eV ==== 
     psi = 0.344*[#   1]+0.344*[#   5]+0.074*[#   3]+0.074*[#   4]+0.074*[#   7]
          +0.074*[#   8]
    |psi|^2 = 0.982
==== e(   2) =    -9.27471 eV ==== 
     psi = 0.202*[#   3]+0.202*[#   4]+0.202*[#   7]+0.202*[#   8]+0.092*[#   1]
          +0.092*[#   5]
    |psi|^2 = 0.992
==== e(   3) =    -7.70909 eV ==== 
     psi = 0.491*[#   2]+0.491*[#   6]
    |psi|^2 = 0.981
==== e(   4) =    -6.93512 eV ==== 
     psi = 0.249*[#   3]+0.249*[#   4]+0.249*[#   7]+0.249*[#   8]
    |psi|^2 = 0.997
==== e(   5) =     3.12594 eV ==== 
     psi = 0.009*[#   3]+0.009*[#   4]+0.009*[#   7]+0.009*[#   8]
    |psi|^2 = 0.037
==== e(   6) =     4.12273 eV ==== 
     psi = 0.012*[#   2]+0.012*[#   6]
    |psi|^2 = 0.024
==== e(   7) =     4.99253 eV ==== 

    |psi|^2 = 0.002
==== e(   8) =     5.42917 eV ==== 
     psi = 0.465*[#   2]+0.465*[#   6]
    |psi|^2 = 0.930
==== e(   9) =     6.32959 eV ==== 
     psi = 0.219*[#   1]+0.219*[#   5]+0.109*[#   3]+0.109*[#   4]+0.109*[#   7]
          +0.109*[#   8]
    |psi|^2 = 0.875
==== e(  10) =     6.76115 eV ==== 
     psi = 0.008*[#   2]+0.008*[#   6]
    |psi|^2 = 0.017

 k =   0.0200000000  0.3117691454  0.0000000000
==== e(   1) =   -19.61963 eV ==== 
     psi = 0.332*[#   1]+0.332*[#   5]+0.080*[#   3]+0.080*[#   4]+0.080*[#   7]
          +0.080*[#   8]
    |psi|^2 = 0.982
==== e(   2) =    -9.80093 eV ==== 
     psi = 0.198*[#   3]+0.198*[#   4]+0.198*[#   7]+0.198*[#   8]+0.100*[#   1]
          +0.100*[#   5]
    |psi|^2 = 0.992
==== e(   3) =    -7.43046 eV ==== 
     psi = 0.492*[#   2]+0.492*[#   6]
    |psi|^2 = 0.984
==== e(   4) =    -7.13080 eV ==== 
     psi = 0.249*[#   3]+0.249*[#   4]+0.249*[#   7]+0.249*[#   8]
    |psi|^2 = 0.997
==== e(   5) =     3.45729 eV ==== 
     psi = 0.008*[#   3]+0.008*[#   4]+0.008*[#   7]+0.008*[#   8]
    |psi|^2 = 0.033
==== e(   6) =     4.39675 eV ==== 
     psi = 0.070*[#   2]+0.070*[#   6]
    |psi|^2 = 0.139
==== e(   7) =     4.94470 eV ==== 
     psi = 0.408*[#   2]+0.408*[#   6]
    |psi|^2 = 0.817
==== e(   8) =     5.33119 eV ==== 

    |psi|^2 = 0.002
==== e(   9) =     6.25225 eV ==== 
     psi = 0.238*[#   1]+0.238*[#   5]+0.102*[#   3]+0.102*[#   4]+0.102*[#   7]
          +0.102*[#   8]
    |psi|^2 = 0.884
==== e(  10) =     7.08965 eV ==== 
     psi = 0.005*[#   2]+0.005*[#   6]
    |psi|^2 = 0.010

 k =   0.0200000000  0.3348631561  0.0000000000
==== e(   1) =   -19.36205 eV ==== 
     psi = 0.320*[#   1]+0.320*[#   5]+0.085*[#   3]+0.085*[#   4]+0.085*[#   7]
          +0.085*[#   8]
    |psi|^2 = 0.982
==== e(   2) =   -10.32931 eV ==== 
     psi = 0.193*[#   3]+0.193*[#   4]+0.193*[#   7]+0.193*[#   8]+0.109*[#   1]
          +0.109*[#   5]
    |psi|^2 = 0.991
==== e(   3) =    -7.31522 eV ==== 
     psi = 0.249*[#   3]+0.249*[#   4]+0.249*[#   7]+0.249*[#   8]
    |psi|^2 = 0.997
==== e(   4) =    -7.13405 eV ==== 
     psi = 0.494*[#   2]+0.494*[#   6]
    |psi|^2 = 0.987
==== e(   5) =     3.81361 eV ==== 
     psi = 0.007*[#   3]+0.007*[#   4]+0.007*[#   7]+0.007*[#   8]
    |psi|^2 = 0.028
==== e(   6) =     4.23146 eV ==== 
     psi = 0.415*[#   2]+0.415*[#   6]
    |psi|^2 = 0.830
==== e(   7) =     4.91474 eV ==== 
     psi = 0.062*[#   2]+0.062*[#   6]
    |psi|^2 = 0.125
==== e(   8) =     5.69329 eV ==== 
     psi = 0.004*[#   1]+0.004*[#   5]
    |psi|^2 = 0.008
==== e(   9) =     6.17689 eV ==== 
     psi = 0.253*[#   1]+0.253*[#   5]+0.094*[#   3]+0.094*[#   4]+0.094*[#   7]
          +0.094*[#   8]
    |psi|^2 = 0.884
==== e(  10) =     7.44503 eV ==== 
     psi = 0.004*[#   2]+0.004*[#   6]
    |psi|^2 = 0.008

 k =   0.0200000000  0.3579571669  0.0000000000
==== e(   1) =   -19.08726 eV ==== 
     psi = 0.310*[#   1]+0.310*[#   5]+0.091*[#   3]+0.091*[#   4]+0.091*[#   7]
          +0.091*[#   8]
    |psi|^2 = 0.982
==== e(   2) =   -10.85690 eV ==== 
     psi = 0.189*[#   3]+0.189*[#   4]+0.189*[#   7]+0.189*[#   8]+0.117*[#   1]
          +0.117*[#   5]
    |psi|^2 = 0.991
==== e(   3) =    -7.48721 eV ==== 
     psi = 0.249*[#   3]+0.249*[#   4]+0.249*[#   7]+0.249*[#   8]
    |psi|^2 = 0.997
==== e(   4) =    -6.82178 eV ==== 
     psi = 0.495*[#   2]+0.495*[#   6]
    |psi|^2 = 0.990
==== e(   5) =     3.71508 eV ==== 
     psi = 0.459*[#   2]+0.459*[#   6]
    |psi|^2 = 0.918
==== e(   6) =     4.19462 eV ==== 
     psi = 0.006*[#   3]+0.006*[#   4]+0.006*[#   7]+0.006*[#   8]
    |psi|^2 = 0.023
==== e(   7) =     5.25721 eV ==== 
     psi = 0.017*[#   2]+0.017*[#   6]
    |psi|^2 = 0.034
==== e(   8) =     6.02952 eV ==== 
     psi = 0.138*[#   1]+0.138*[#   5]+0.037*[#   3]+0.037*[#   4]+0.037*[#   7]
          +0.037*[#   8]
    |psi|^2 = 0.423
==== e(   9) =     6.15560 eV ==== 
     psi = 0.135*[#   1]+0.135*[#   5]+0.051*[#   3]+0.051*[#   4]+0.051*[#   7]
          +0.051*[#   8]
    |psi|^2 = 0.475
==== e(  10) =     7.82555 eV ==== 
     psi = 0.003*[#   2]+0.003*[#   6]
    |psi|^2 = 0.006

 k =   0.0200000000  0.3810511777  0.0000000000
==== e(   1) =   -18.79557 eV ==== 
     psi = 0.300*[#   1]+0.300*[#   5]+0.095*[#   3]+0.095*[#   4]+0.095*[#   7]
          +0.095*[#   8]
    |psi|^2 = 0.982
==== e(   2) =   -11.38116 eV ==== 
     psi = 0.186*[#   3]+0.186*[#   4]+0.186*[#   7]+0.186*[#   8]+0.124*[#   1]
          +0.124*[#   5]
    |psi|^2 = 0.990
==== e(   3) =    -7.64520 eV ==== 
     psi = 0.249*[#   3]+0.249*[#   4]+0.249*[#   7]+0.249*[#   8]
    |psi|^2 = 0.996
==== e(   4) =    -6.49557 eV ==== 
     psi = 0.496*[#   2]+0.496*[#   6]
    |psi|^2 = 0.992
==== e(   5) =     3.17032 eV ==== 
     psi = 0.466*[#   2]+0.466*[#   6]
    |psi|^2 = 0.933
==== e(   6) =     4.59973 eV ==== 
     psi = 0.004*[#   3]+0.004*[#   4]+0.004*[#   7]+0.004*[#   8]
    |psi|^2 = 0.017
==== e(   7) =     5.65403 eV ==== 
     psi = 0.009*[#   2]+0.009*[#   6]
    |psi|^2 = 0.019
==== e(   8) =     6.01040 eV ==== 
     psi = 0.282*[#   1]+0.282*[#   5]+0.078*[#   3]+0.078*[#   4]+0.078*[#   7]
          +0.078*[#   8]
    |psi|^2 = 0.877
==== e(   9) =     6.52001 eV ==== 
     psi = 0.005*[#   1]+0.005*[#   5]+0.004*[#   3]+0.004*[#   4]+0.004*[#   7]
          +0.004*[#   8]
    |psi|^2 = 0.024
==== e(  10) =     8.23061 eV ==== 
     psi = 0.003*[#   2]+0.003*[#   6]
    |psi|^2 = 0.005

 k =   0.0200000000  0.4041451884  0.0000000000
==== e(   1) =   -18.48781 eV ==== 
     psi = 0.292*[#   1]+0.292*[#   5]+0.100*[#   3]+0.100*[#   4]+0.100*[#   7]
          +0.100*[#   8]
    |psi|^2 = 0.983
==== e(   2) =   -11.90018 eV ==== 
     psi = 0.182*[#   3]+0.182*[#   4]+0.182*[#   7]+0.182*[#   8]+0.131*[#   1]
          +0.131*[#   5]
    |psi|^2 = 0.990
==== e(   3) =    -7.78804 eV ==== 
     psi = 0.249*[#   3]+0.249*[#   4]+0.249*[#   7]+0.249*[#   8]
    |psi|^2 = 0.996
==== e(   4) =    -6.15820 eV ==== 
     psi = 0.497*[#   2]+0.497*[#   6]
    |psi|^2 = 0.994
==== e(   5) =     2.62671 eV ==== 
     psi = 0.469*[#   2]+0.469*[#   6]
    |psi|^2 = 0.938
==== e(   6) =     5.02724 eV ==== 
     psi = 0.003*[#   1]+0.003*[#   5]+0.002*[#   3]+0.002*[#   4]+0.002*[#   7]
          +0.002*[#   8]
    |psi|^2 = 0.014
==== e(   7) =     5.94874 eV ==== 
     psi = 0.296*[#   1]+0.296*[#   5]+0.076*[#   3]+0.076*[#   4]+0.076*[#   7]
          +0.076*[#   8]
    |psi|^2 = 0.894
==== e(   8) =     6.08106 eV ==== 
     psi = 0.006*[#   2]+0.006*[#   6]
    |psi|^2 = 0.013
==== e(   9) =     6.96029 eV ==== 
     psi = 0.002*[#   3]+0.002*[#   4]+0.002*[#   7]+0.002*[#   8]+0.001*[#   1]
          +0.001*[#   5]
    |psi|^2 = 0.009
==== e(  10) =     8.65951 eV ==== 
     psi = 0.002*[#   2]+0.002*[#   6]
    |psi|^2 = 0.005

 k =   0.0200000000  0.4272391992  0.0000000000
==== e(   1) =   -18.16427 eV ==== 
     psi = 0.284*[#   1]+0.284*[#   5]+0.104*[#   3]+0.104*[#   4]+0.104*[#   7]
          +0.104*[#   8]
    |psi|^2 = 0.983
==== e(   2) =   -12.41099 eV ==== 
     psi = 0.179*[#   3]+0.179*[#   4]+0.179*[#   7]+0.179*[#   8]+0.137*[#   1]
          +0.137*[#   5]
    |psi|^2 = 0.989
==== e(   3) =    -7.91492 eV ==== 
     psi = 0.249*[#   3]+0.249*[#   4]+0.249*[#   7]+0.249*[#   8]
    |psi|^2 = 0.996
==== e(   4) =    -5.81309 eV ==== 
     psi = 0.498*[#   2]+0.498*[#   6]
    |psi|^2 = 0.995
==== e(   5) =     2.09474 eV ==== 
     psi = 0.470*[#   2]+0.470*[#   6]
    |psi|^2 = 0.940
==== e(   6) =     5.46830 eV ==== 
     psi = 0.018*[#   1]+0.018*[#   5]
    |psi|^2 = 0.037
==== e(   7) =     5.90204 eV ==== 
     psi = 0.292*[#   1]+0.292*[#   5]+0.072*[#   3]+0.072*[#   4]+0.072*[#   7]
          +0.072*[#   8]
    |psi|^2 = 0.873
==== e(   8) =     6.53426 eV ==== 
     psi = 0.005*[#   2]+0.005*[#   6]
    |psi|^2 = 0.010
==== e(   9) =     7.42915 eV ==== 

    |psi|^2 = 0.005
==== e(  10) =     9.11168 eV ==== 
     psi = 0.002*[#   2]+0.002*[#   6]
    |psi|^2 = 0.005

 k =   0.0200000000  0.4503332100  0.0000000000
==== e(   1) =   -17.82614 eV ==== 
     psi = 0.277*[#   1]+0.277*[#   5]+0.107*[#   3]+0.107*[#   4]+0.107*[#   7]
          +0.107*[#   8]
    |psi|^2 = 0.984
==== e(   2) =   -12.91209 eV ==== 
     psi = 0.176*[#   3]+0.176*[#   4]+0.176*[#   7]+0.176*[#   8]+0.142*[#   1]
          +0.142*[#   5]
    |psi|^2 = 0.988
==== e(   3) =    -8.02480 eV ==== 
     psi = 0.249*[#   3]+0.249*[#   4]+0.249*[#   7]+0.249*[#   8]
    |psi|^2 = 0.996
==== e(   4) =    -5.46623 eV ==== 
     psi = 0.498*[#   2]+0.498*[#   6]
    |psi|^2 = 0.996
==== e(   5) =     1.58317 eV ==== 
     psi = 0.471*[#   2]+0.471*[#   6]
    |psi|^2 = 0.943
==== e(   6) =     5.76528 eV ==== 
     psi = 0.254*[#   1]+0.254*[#   5]+0.039*[#   3]+0.039*[#   4]+0.039*[#   7]
          +0.039*[#   8]
    |psi|^2 = 0.664
==== e(   7) =     6.03048 eV ==== 
     psi = 0.066*[#   1]+0.066*[#   5]+0.028*[#   3]+0.028*[#   4]+0.028*[#   7]
          +0.028*[#   8]
    |psi|^2 = 0.244
==== e(   8) =     7.01194 eV ==== 
     psi = 0.004*[#   2]+0.004*[#   6]
    |psi|^2 = 0.008
==== e(   9) =     7.92461 eV ==== 

    |psi|^2 = 0.003
==== e(  10) =     9.58580 eV ==== 
     psi = 0.002*[#   2]+0.002*[#   6]
    |psi|^2 = 0.005

 k =   0.0200000000  0.4734272207  0.0000000000
==== e(   1) =   -17.47511 eV ==== 
     psi = 0.272*[#   1]+0.272*[#   5]+0.110*[#   3]+0.110*[#   4]+0.110*[#   7]
          +0.110*[#   8]
    |psi|^2 = 0.985
==== e(   2) =   -13.40016 eV ==== 
     psi = 0.174*[#   3]+0.174*[#   4]+0.174*[#   7]+0.174*[#   8]+0.146*[#   1]
          +0.146*[#   5]
    |psi|^2 = 0.987
==== e(   3) =    -8.11760 eV ==== 
     psi = 0.248*[#   3]+0.248*[#   4]+0.248*[#   7]+0.248*[#   8]
    |psi|^2 = 0.996
==== e(   4) =    -5.12595 eV ==== 
     psi = 0.498*[#   2]+0.498*[#   6]
    |psi|^2 = 0.997
==== e(   5) =     1.10243 eV ==== 
     psi = 0.472*[#   2]+0.472*[#   6]
    |psi|^2 = 0.944
==== e(   6) =     5.75592 eV ==== 
     psi = 0.321*[#   1]+0.321*[#   5]+0.055*[#   3]+0.055*[#   4]+0.055*[#   7]
          +0.055*[#   8]
    |psi|^2 = 0.862
==== e(   7) =     6.49736 eV ==== 
     psi = 0.008*[#   3]+0.008*[#   4]+0.008*[#   7]+0.008*[#   8]+0.007*[#   1]
          +0.007*[#   5]
    |psi|^2 = 0.045
==== e(   8) =     7.51302 eV ==== 
     psi = 0.004*[#   2]+0.004*[#   6]
    |psi|^2 = 0.007
==== e(   9) =     8.44617 eV ==== 

    |psi|^2 = 0.002
==== e(  10) =    10.07992 eV ==== 
     psi = 0.002*[#   2]+0.002*[#   6]
    |psi|^2 = 0.005

 k =   0.0200000000  0.4965212315  0.0000000000
==== e(   1) =   -17.11445 eV ==== 
     psi = 0.270*[#   1]+0.270*[#   5]+0.112*[#   3]+0.112*[#   4]+0.112*[#   7]
          +0.112*[#   8]
    |psi|^2 = 0.986
==== e(   2) =   -13.87156 eV ==== 
     psi = 0.173*[#   3]+0.173*[#   4]+0.173*[#   7]+0.173*[#   8]+0.148*[#   1]
          +0.148*[#   5]
    |psi|^2 = 0.986
==== e(   3) =    -8.19205 eV ==== 
     psi = 0.248*[#   3]+0.248*[#   4]+0.248*[#   7]+0.248*[#   8]
    |psi|^2 = 0.996
==== e(   4) =    -4.80503 eV ==== 
     psi = 0.499*[#   2]+0.499*[#   6]
    |psi|^2 = 0.997
==== e(   5) =     0.66734 eV ==== 
     psi = 0.473*[#   2]+0.473*[#   6]
    |psi|^2 = 0.946
==== e(   6) =     5.72362 eV ==== 
     psi = 0.333*[#   1]+0.333*[#   5]+0.055*[#   3]+0.055*[#   4]+0.055*[#   7]
          +0.055*[#   8]
    |psi|^2 = 0.884
==== e(   7) =     7.01876 eV ==== 
     psi = 0.004*[#   3]+0.004*[#   4]+0.004*[#   7]+0.004*[#   8]+0.002*[#   1]
          +0.002*[#   5]
    |psi|^2 = 0.021
==== e(   8) =     8.03638 eV ==== 
     psi = 0.004*[#   2]+0.004*[#   6]
    |psi|^2 = 0.007
==== e(   9) =     8.99355 eV ==== 

    |psi|^2 = 0.002
==== e(  10) =    10.58849 eV ==== 
     psi = 0.003*[#   2]+0.003*[#   6]
    |psi|^2 = 0.006

 k =   0.0200000000  0.5196152423  0.0000000000
==== e(   1) =   -16.75148 eV ==== 
     psi = 0.272*[#   1]+0.272*[#   5]+0.111*[#   3]+0.111*[#   4]+0.111*[#   7]
          +0.111*[#   8]
    |psi|^2 = 0.988
==== e(   2) =   -14.31845 eV ==== 
     psi = 0.174*[#   3]+0.174*[#   4]+0.174*[#   7]+0.174*[#   8]+0.145*[#   1]
          +0.145*[#   5]
    |psi|^2 = 0.985
==== e(   3) =    -8.24837 eV ==== 
     psi = 0.248*[#   3]+0.248*[#   4]+0.248*[#   7]+0.248*[#   8]
    |psi|^2 = 0.996
==== e(   4) =    -4.52258 eV ==== 
     psi = 0.499*[#   2]+0.499*[#   6]
    |psi|^2 = 0.997
==== e(   5) =     0.29812 eV ==== 
     psi = 0.473*[#   2]+0.473*[#   6]
    |psi|^2 = 0.946
==== e(   6) =     5.69649 eV ==== 
     psi = 0.339*[#   1]+0.339*[#   5]+0.053*[#   3]+0.053*[#   4]+0.053*[#   7]
          +0.053*[#   8]
    |psi|^2 = 0.891
==== e(   7) =     7.56691 eV ==== 
     psi = 0.003*[#   3]+0.003*[#   4]+0.003*[#   7]+0.003*[#   8]+0.001*[#   1]
          +0.001*[#   5]
    |psi|^2 = 0.013
==== e(   8) =     8.58043 eV ==== 
     psi = 0.004*[#   2]+0.004*[#   6]
    |psi|^2 = 0.007
==== e(   9) =     9.56641 eV ==== 

    |psi|^2 = 0.001
==== e(  10) =    10.62194 eV ==== 
     psi = 0.007*[#   1]+0.007*[#   5]+0.002*[#   3]+0.002*[#   4]+0.002*[#   7]
          +0.002*[#   8]
    |psi|^2 = 0.023

 k =   0.0200000000  0.5427092530  0.0000000000
==== e(   1) =   -16.40557 eV ==== 
     psi = 0.282*[#   1]+0.282*[#   5]+0.106*[#   3]+0.106*[#   4]+0.106*[#   7]
          +0.106*[#   8]
    |psi|^2 = 0.990
==== e(   2) =   -14.72009 eV ==== 
     psi = 0.178*[#   3]+0.178*[#   4]+0.178*[#   7]+0.178*[#   8]+0.135*[#   1]
          +0.135*[#   5]
    |psi|^2 = 0.983
==== e(   3) =    -8.28592 eV ==== 
     psi = 0.248*[#   3]+0.248*[#   4]+0.248*[#   7]+0.248*[#   8]
    |psi|^2 = 0.996
==== e(   4) =    -4.30512 eV ==== 
     psi = 0.499*[#   2]+0.499*[#   6]
    |psi|^2 = 0.998
==== e(   5) =     0.02314 eV ==== 
     psi = 0.473*[#   2]+0.473*[#   6]
    |psi|^2 = 0.947
==== e(   6) =     5.67762 eV ==== 
     psi = 0.343*[#   1]+0.343*[#   5]+0.052*[#   3]+0.052*[#   4]+0.052*[#   7]
          +0.052*[#   8]
    |psi|^2 = 0.894
==== e(   7) =     8.13783 eV ==== 
     psi = 0.002*[#   3]+0.002*[#   4]+0.002*[#   7]+0.002*[#   8]+0.001*[#   1]
          +0.001*[#   5]
    |psi|^2 = 0.010
==== e(   8) =     9.14217 eV ==== 
     psi = 0.004*[#   2]+0.004*[#   6]
    |psi|^2 = 0.009
==== e(   9) =     9.97724 eV ==== 
     psi = 0.005*[#   1]+0.005*[#   5]+0.002*[#   3]+0.002*[#   4]+0.002*[#   7]
          +0.002*[#   8]
    |psi|^2 = 0.015
==== e(  10) =    10.16836 eV ==== 

    |psi|^2 = 0.001

 k =   0.0200000000  0.5658032638  0.0000000000
==== e(   1) =   -16.14608 eV ==== 
     psi = 0.305*[#   1]+0.305*[#   5]+0.096*[#   3]+0.096*[#   4]+0.096*[#   7]
          +0.096*[#   8]
    |psi|^2 = 0.993
==== e(   2) =   -15.00741 eV ==== 
     psi = 0.189*[#   3]+0.189*[#   4]+0.189*[#   7]+0.189*[#   8]+0.112*[#   1]
          +0.112*[#   5]
    |psi|^2 = 0.980
==== e(   3) =    -8.30477 eV ==== 
     psi = 0.248*[#   3]+0.248*[#   4]+0.248*[#   7]+0.248*[#   8]
    |psi|^2 = 0.996
==== e(   4) =    -4.18497 eV ==== 
     psi = 0.499*[#   2]+0.499*[#   6]
    |psi|^2 = 0.998
==== e(   5) =    -0.12623 eV ==== 
     psi = 0.474*[#   2]+0.474*[#   6]
    |psi|^2 = 0.947
==== e(   6) =     5.66807 eV ==== 
     psi = 0.344*[#   1]+0.344*[#   5]+0.052*[#   3]+0.052*[#   4]+0.052*[#   7]
          +0.052*[#   8]
    |psi|^2 = 0.896
==== e(   7) =     8.72591 eV ==== 
     psi = 0.002*[#   1]+0.002*[#   5]+0.001*[#   3]+0.001*[#   4]+0.001*[#   7]
          +0.001*[#   8]
    |psi|^2 = 0.009
==== e(   8) =     9.35523 eV ==== 
     psi = 0.002*[#   1]+0.002*[#   5]+0.002*[#   3]+0.002*[#   4]+0.002*[#   7]
          +0.002*[#   8]
    |psi|^2 = 0.011
==== e(   9) =     9.70673 eV ==== 
     psi = 0.006*[#   2]+0.006*[#   6]
    |psi|^2 = 0.012
==== e(  10) =    10.35740 eV ==== 
     psi = 0.003*[#   2]+0.003*[#   6]
    |psi|^2 = 0.006

 k =   0.0400000000  0.0692820323  0.0000000000
==== e(   1) =   -21.21318 eV ==== 
     psi = 0.472*[#   1]+0.472*[#   5]+0.010*[#   3]+0.010*[#   4]+0.010*[#   7]
          +0.010*[#   8]
    |psi|^2 = 0.985
==== e(   2) =    -9.31302 eV ==== 
     psi = 0.477*[#   2]+0.477*[#   6]
    |psi|^2 = 0.953
==== e(   3) =    -5.34748 eV ==== 
     psi = 0.244*[#   3]+0.244*[#   4]+0.244*[#   7]+0.244*[#   8]+0.011*[#   1]
          +0.011*[#   5]
    |psi|^2 = 0.997
==== e(   4) =    -5.14480 eV ==== 
     psi = 0.249*[#   3]+0.249*[#   4]+0.249*[#   7]+0.249*[#   8]
    |psi|^2 = 0.997
==== e(   5) =     1.27266 eV ==== 
     psi = 0.003*[#   3]+0.003*[#   4]+0.003*[#   7]+0.003*[#   8]+0.002*[#   1]
          +0.002*[#   5]
    |psi|^2 = 0.017
==== e(   6) =     2.28489 eV ==== 
     psi = 0.013*[#   2]+0.013*[#   6]
    |psi|^2 = 0.026
==== e(   7) =     3.09761 eV ==== 

    |psi|^2 = 0.002
==== e(   8) =     4.88818 eV ==== 
     psi = 0.005*[#   2]+0.005*[#   6]
    |psi|^2 = 0.010
==== e(   9) =     5.80737 eV ==== 
     psi = 0.001*[#   1]+0.001*[#   5]
    |psi|^2 = 0.003
==== e(  10) =     6.65989 eV ==== 
     psi = 0.223*[#   3]+0.223*[#   4]+0.223*[#   7]+0.223*[#   8]+0.020*[#   1]
          +0.020*[#   5]
    |psi|^2 = 0.933

 k =   0.0400000000  0.0923760431  0.0000000000
==== e(   1) =   -21.14732 eV ==== 
     psi = 0.461*[#   1]+0.461*[#   5]+0.016*[#   3]+0.016*[#   4]+0.016*[#   7]
          +0.016*[#   8]
    |psi|^2 = 0.984
==== e(   2) =    -9.23400 eV ==== 
     psi = 0.478*[#   2]+0.478*[#   6]
    |psi|^2 = 0.955
==== e(   3) =    -5.59083 eV ==== 
     psi = 0.241*[#   3]+0.241*[#   4]+0.241*[#   7]+0.241*[#   8]+0.017*[#   1]
          +0.017*[#   5]
    |psi|^2 = 0.997
==== e(   4) =    -5.28202 eV ==== 
     psi = 0.249*[#   3]+0.249*[#   4]+0.249*[#   7]+0.249*[#   8]
    |psi|^2 = 0.997
==== e(   5) =     1.36224 eV ==== 
     psi = 0.005*[#   3]+0.005*[#   4]+0.005*[#   7]+0.005*[#   8]+0.001*[#   1]
          +0.001*[#   5]
    |psi|^2 = 0.022
==== e(   6) =     2.37488 eV ==== 
     psi = 0.013*[#   2]+0.013*[#   6]
    |psi|^2 = 0.025
==== e(   7) =     3.18913 eV ==== 

    |psi|^2 = 0.002
==== e(   8) =     4.97817 eV ==== 
     psi = 0.005*[#   2]+0.005*[#   6]
    |psi|^2 = 0.010
==== e(   9) =     5.89485 eV ==== 
     psi = 0.002*[#   1]+0.002*[#   5]
    |psi|^2 = 0.004
==== e(  10) =     6.70268 eV ==== 
     psi = 0.215*[#   3]+0.215*[#   4]+0.215*[#   7]+0.215*[#   8]+0.031*[#   1]
          +0.031*[#   5]
    |psi|^2 = 0.924

 k =   0.0400000000  0.1154700538  0.0000000000
==== e(   1) =   -21.06275 eV ==== 
     psi = 0.449*[#   1]+0.449*[#   5]+0.022*[#   3]+0.022*[#   4]+0.022*[#   7]
          +0.022*[#   8]
    |psi|^2 = 0.984
==== e(   2) =    -9.13254 eV ==== 
     psi = 0.479*[#   2]+0.479*[#   6]
    |psi|^2 = 0.957
==== e(   3) =    -5.89154 eV ==== 
     psi = 0.237*[#   3]+0.237*[#   4]+0.237*[#   7]+0.237*[#   8]+0.024*[#   1]
          +0.024*[#   5]
    |psi|^2 = 0.997
==== e(   4) =    -5.44779 eV ==== 
     psi = 0.248*[#   3]+0.248*[#   4]+0.248*[#   7]+0.248*[#   8]+0.001*[#   1]
          +0.001*[#   5]
    |psi|^2 = 0.997
==== e(   5) =     1.47741 eV ==== 
     psi = 0.007*[#   3]+0.007*[#   4]+0.007*[#   7]+0.007*[#   8]
    |psi|^2 = 0.028
==== e(   6) =     2.49052 eV ==== 
     psi = 0.012*[#   2]+0.012*[#   6]
    |psi|^2 = 0.024
==== e(   7) =     3.30682 eV ==== 

    |psi|^2 = 0.003
==== e(   8) =     5.09372 eV ==== 
     psi = 0.005*[#   2]+0.005*[#   6]
    |psi|^2 = 0.009
==== e(   9) =     6.00697 eV ==== 
     psi = 0.002*[#   1]+0.002*[#   5]
    |psi|^2 = 0.007
==== e(  10) =     6.74136 eV ==== 
     psi = 0.205*[#   3]+0.205*[#   4]+0.205*[#   7]+0.205*[#   8]+0.046*[#   1]
          +0.046*[#   5]
    |psi|^2 = 0.913

 k =   0.0400000000  0.1385640646  0.0000000000
==== e(   1) =   -20.95949 eV ==== 
     psi = 0.435*[#   1]+0.435*[#   5]+0.029*[#   3]+0.029*[#   4]+0.029*[#   7]
          +0.029*[#   8]
    |psi|^2 = 0.984
==== e(   2) =    -9.00883 eV ==== 
     psi = 0.480*[#   2]+0.480*[#   6]
    |psi|^2 = 0.960
==== e(   3) =    -6.24244 eV ==== 
     psi = 0.233*[#   3]+0.233*[#   4]+0.233*[#   7]+0.233*[#   8]+0.032*[#   1]
          +0.032*[#   5]
    |psi|^2 = 0.997
==== e(   4) =    -5.63593 eV ==== 
     psi = 0.248*[#   3]+0.248*[#   4]+0.248*[#   7]+0.248*[#   8]+0.002*[#   1]
          +0.002*[#   5]
    |psi|^2 = 0.997
==== e(   5) =     1.61818 eV ==== 
     psi = 0.008*[#   3]+0.008*[#   4]+0.008*[#   7]+0.008*[#   8]
    |psi|^2 = 0.032
==== e(   6) =     2.63175 eV ==== 
     psi = 0.011*[#   2]+0.011*[#   6]
    |psi|^2 = 0.023
==== e(   7) =     3.45067 eV ==== 

    |psi|^2 = 0.003
==== e(   8) =     5.23486 eV ==== 
     psi = 0.004*[#   2]+0.004*[#   6]
    |psi|^2 = 0.009
==== e(   9) =     6.14278 eV ==== 
     psi = 0.003*[#   1]+0.003*[#   5]+0.001*[#   3]+0.001*[#   4]+0.001*[#   7]
          +0.001*[#   8]
    |psi|^2 = 0.012
==== e(  10) =     6.76702 eV ==== 
     psi = 0.193*[#   3]+0.193*[#   4]+0.193*[#   7]+0.193*[#   8]+0.064*[#   1]
          +0.064*[#   5]
    |psi|^2 = 0.899

 k =   0.0400000000  0.1616580754  0.0000000000
==== e(   1) =   -20.83760 eV ==== 
     psi = 0.420*[#   1]+0.420*[#   5]+0.036*[#   3]+0.036*[#   4]+0.036*[#   7]
          +0.036*[#   8]
    |psi|^2 = 0.984
==== e(   2) =    -8.86313 eV ==== 
     psi = 0.481*[#   2]+0.481*[#   6]
    |psi|^2 = 0.963
==== e(   3) =    -6.63661 eV ==== 
     psi = 0.229*[#   3]+0.229*[#   4]+0.229*[#   7]+0.229*[#   8]+0.041*[#   1]
          +0.041*[#   5]
    |psi|^2 = 0.996
==== e(   4) =    -5.83973 eV ==== 
     psi = 0.248*[#   3]+0.248*[#   4]+0.248*[#   7]+0.248*[#   8]+0.002*[#   1]
          +0.002*[#   5]
    |psi|^2 = 0.997
==== e(   5) =     1.78452 eV ==== 
     psi = 0.009*[#   3]+0.009*[#   4]+0.009*[#   7]+0.009*[#   8]
    |psi|^2 = 0.037
==== e(   6) =     2.79847 eV ==== 
     psi = 0.011*[#   2]+0.011*[#   6]
    |psi|^2 = 0.021
==== e(   7) =     3.62067 eV ==== 

    |psi|^2 = 0.003
==== e(   8) =     5.40140 eV ==== 
     psi = 0.004*[#   2]+0.004*[#   6]
    |psi|^2 = 0.008
==== e(   9) =     6.29944 eV ==== 
     psi = 0.007*[#   1]+0.007*[#   5]+0.004*[#   3]+0.004*[#   4]+0.004*[#   7]
          +0.004*[#   8]
    |psi|^2 = 0.031
==== e(  10) =     6.77916 eV ==== 
     psi = 0.177*[#   3]+0.177*[#   4]+0.177*[#   7]+0.177*[#   8]+0.083*[#   1]
          +0.083*[#   5]
    |psi|^2 = 0.874

 k =   0.0400000000  0.1847520861  0.0000000000
==== e(   1) =   -20.69711 eV ==== 
     psi = 0.405*[#   1]+0.405*[#   5]+0.043*[#   3]+0.043*[#   4]+0.043*[#   7]
          +0.043*[#   8]
    |psi|^2 = 0.983
==== e(   2) =    -8.69570 eV ==== 
     psi = 0.483*[#   2]+0.483*[#   6]
    |psi|^2 = 0.966
==== e(   3) =    -7.06657 eV ==== 
     psi = 0.224*[#   3]+0.224*[#   4]+0.224*[#   7]+0.224*[#   8]+0.050*[#   1]
          +0.050*[#   5]
    |psi|^2 = 0.996
==== e(   4) =    -6.05317 eV ==== 
     psi = 0.248*[#   3]+0.248*[#   4]+0.248*[#   7]+0.248*[#   8]+0.003*[#   1]
          +0.003*[#   5]
    |psi|^2 = 0.996
==== e(   5) =     1.97642 eV ==== 
     psi = 0.010*[#   3]+0.010*[#   4]+0.010*[#   7]+0.010*[#   8]
    |psi|^2 = 0.040
==== e(   6) =     2.99056 eV ==== 
     psi = 0.010*[#   2]+0.010*[#   6]
    |psi|^2 = 0.019
==== e(   7) =     3.81682 eV ==== 

    |psi|^2 = 0.003
==== e(   8) =     5.59311 eV ==== 
     psi = 0.004*[#   2]+0.004*[#   6]
    |psi|^2 = 0.008
==== e(   9) =     6.46601 eV ==== 
     psi = 0.021*[#   1]+0.021*[#   5]+0.018*[#   3]+0.018*[#   4]+0.018*[#   7]
          +0.018*[#   8]
    |psi|^2 = 0.112
==== e(  10) =     6.78732 eV ==== 
     psi = 0.151*[#   3]+0.151*[#   4]+0.151*[#   7]+0.151*[#   8]+0.093*[#   1]
          +0.093*[#   5]
    |psi|^2 = 0.789

 k =   0.0400000000  0.2078460969  0.0000000000
==== e(   1) =   -20.53823 eV ==== 
     psi = 0.390*[#   1]+0.390*[#   5]+0.051*[#   3]+0.051*[#   4]+0.051*[#   7]
          +0.051*[#   8]
    |psi|^2 = 0.983
==== e(   2) =    -8.50683 eV ==== 
     psi = 0.485*[#   2]+0.485*[#   6]
    |psi|^2 = 0.969
==== e(   3) =    -7.52567 eV ==== 
     psi = 0.219*[#   3]+0.219*[#   4]+0.219*[#   7]+0.219*[#   8]+0.060*[#   1]
          +0.060*[#   5]
    |psi|^2 = 0.995
==== e(   4) =    -6.27194 eV ==== 
     psi = 0.248*[#   3]+0.248*[#   4]+0.248*[#   7]+0.248*[#   8]+0.003*[#   1]
          +0.003*[#   5]
    |psi|^2 = 0.996
==== e(   5) =     2.19383 eV ==== 
     psi = 0.010*[#   3]+0.010*[#   4]+0.010*[#   7]+0.010*[#   8]
    |psi|^2 = 0.041
==== e(   6) =     3.20780 eV ==== 
     psi = 0.009*[#   2]+0.009*[#   6]
    |psi|^2 = 0.018
==== e(   7) =     4.03909 eV ==== 

    |psi|^2 = 0.003
==== e(   8) =     5.80884 eV ==== 
     psi = 0.004*[#   2]+0.004*[#   6]
    |psi|^2 = 0.008
==== e(   9) =     6.58837 eV ==== 
     psi = 0.082*[#   1]+0.082*[#   5]+0.075*[#   3]+0.075*[#   4]+0.075*[#   7]
          +0.075*[#   8]
    |psi|^2 = 0.464
==== e(  10) =     6.84630 eV ==== 
     psi = 0.080*[#   3]+0.080*[#   4]+0.080*[#   7]+0.080*[#   8]+0.056*[#   1]
          +0.056*[#   5]
    |psi|^2 = 0.434

 k =   0.0400000000  0.2309401077  0.0000000000
==== e(   1) =   -20.36104 eV ==== 
     psi = 0.376*[#   1]+0.376*[#   5]+0.058*[#   3]+0.058*[#   4]+0.058*[#   7]
          +0.058*[#   8]
    |psi|^2 = 0.983
==== e(   2) =    -8.29709 eV ==== 
     psi = 0.486*[#   2]+0.486*[#   6]
    |psi|^2 = 0.973
==== e(   3) =    -8.00758 eV ==== 
     psi = 0.214*[#   3]+0.214*[#   4]+0.214*[#   7]+0.214*[#   8]+0.069*[#   1]
          +0.069*[#   5]
    |psi|^2 = 0.994
==== e(   4) =    -6.49125 eV ==== 
     psi = 0.248*[#   3]+0.248*[#   4]+0.248*[#   7]+0.248*[#   8]+0.003*[#   1]
          +0.003*[#   5]
    |psi|^2 = 0.996
==== e(   5) =     2.43670 eV ==== 
     psi = 0.010*[#   3]+0.010*[#   4]+0.010*[#   7]+0.010*[#   8]
    |psi|^2 = 0.042
==== e(   6) =     3.44977 eV ==== 
     psi = 0.008*[#   2]+0.008*[#   6]
    |psi|^2 = 0.016
==== e(   7) =     4.28745 eV ==== 

    |psi|^2 = 0.003
==== e(   8) =     6.04424 eV ==== 
     psi = 0.010*[#   2]+0.010*[#   6]
    |psi|^2 = 0.020
==== e(   9) =     6.59721 eV ==== 
     psi = 0.146*[#   1]+0.146*[#   5]+0.118*[#   3]+0.118*[#   4]+0.118*[#   7]
          +0.118*[#   8]
    |psi|^2 = 0.764
==== e(  10) =     6.68779 eV ==== 
     psi = 0.475*[#   2]+0.475*[#   6]
    |psi|^2 = 0.950

 k =   0.0400000000  0.2540341184  0.0000000000
==== e(   1) =   -20.16567 eV ==== 
     psi = 0.362*[#   1]+0.362*[#   5]+0.065*[#   3]+0.065*[#   4]+0.065*[#   7]
          +0.065*[#   8]
    |psi|^2 = 0.982
==== e(   2) =    -8.50685 eV ==== 
     psi = 0.209*[#   3]+0.209*[#   4]+0.209*[#   7]+0.209*[#   8]+0.078*[#   1]
          +0.078*[#   5]
    |psi|^2 = 0.994
==== e(   3) =    -8.06701 eV ==== 
     psi = 0.488*[#   2]+0.488*[#   6]
    |psi|^2 = 0.976
==== e(   4) =    -6.70798 eV ==== 
     psi = 0.247*[#   3]+0.247*[#   4]+0.247*[#   7]+0.247*[#   8]+0.003*[#   1]
          +0.003*[#   5]
    |psi|^2 = 0.996
==== e(   5) =     2.70498 eV ==== 
     psi = 0.010*[#   3]+0.010*[#   4]+0.010*[#   7]+0.010*[#   8]
    |psi|^2 = 0.041
==== e(   6) =     3.71559 eV ==== 
     psi = 0.008*[#   2]+0.008*[#   6]
    |psi|^2 = 0.015
==== e(   7) =     4.56188 eV ==== 

    |psi|^2 = 0.003
==== e(   8) =     6.12600 eV ==== 
     psi = 0.375*[#   2]+0.375*[#   6]
    |psi|^2 = 0.749
==== e(   9) =     6.37743 eV ==== 
     psi = 0.108*[#   2]+0.108*[#   6]
    |psi|^2 = 0.216
==== e(  10) =     6.55082 eV ==== 
     psi = 0.179*[#   1]+0.179*[#   5]+0.120*[#   3]+0.120*[#   4]+0.120*[#   7]
          +0.120*[#   8]
    |psi|^2 = 0.839

 k =   0.0400000000  0.2771281292  0.0000000000
==== e(   1) =   -19.95230 eV ==== 
     psi = 0.349*[#   1]+0.349*[#   5]+0.071*[#   3]+0.071*[#   4]+0.071*[#   7]
          +0.071*[#   8]
    |psi|^2 = 0.982
[...]
    |psi|^2 = 0.996
==== e(   5) =     0.23889 eV ==== 
     psi = 0.493*[#   2]+0.493*[#   6]
    |psi|^2 = 0.985
==== e(   6) =     8.03217 eV ==== 
     psi = 0.003*[#   1]+0.003*[#   5]
    |psi|^2 = 0.010
==== e(   7) =     8.48329 eV ==== 

    |psi|^2 = 0.000
==== e(   8) =    10.07229 eV ==== 
     psi = 0.004*[#   1]+0.004*[#   5]+0.001*[#   3]+0.001*[#   4]+0.001*[#   7]
          +0.001*[#   8]
    |psi|^2 = 0.012
==== e(   9) =    10.47028 eV ==== 

    |psi|^2 = 0.001
==== e(  10) =    10.71930 eV ==== 
     psi = 0.192*[#   1]+0.192*[#   5]+0.076*[#   3]+0.076*[#   4]+0.076*[#   7]
          +0.076*[#   8]
    |psi|^2 = 0.689

 k =   0.2600000000  0.4965212315  0.0000000000
==== e(   1) =   -16.05432 eV ==== 
     psi = 0.243*[#   1]+0.243*[#   5]+0.126*[#   3]+0.126*[#   4]+0.126*[#   7]
          +0.126*[#   8]
    |psi|^2 = 0.989
==== e(   2) =   -13.28511 eV ==== 
     psi = 0.182*[#   1]+0.182*[#   5]+0.158*[#   3]+0.158*[#   4]+0.158*[#   7]
          +0.158*[#   8]
    |psi|^2 = 0.993
==== e(   3) =   -11.47477 eV ==== 
     psi = 0.231*[#   3]+0.231*[#   4]+0.231*[#   7]+0.231*[#   8]+0.032*[#   1]
          +0.032*[#   5]
    |psi|^2 = 0.986
==== e(   4) =    -3.52229 eV ==== 
     psi = 0.498*[#   2]+0.498*[#   6]
    |psi|^2 = 0.996
==== e(   5) =    -0.12760 eV ==== 
     psi = 0.493*[#   2]+0.493*[#   6]
    |psi|^2 = 0.986
==== e(   6) =     8.53933 eV ==== 
     psi = 0.005*[#   1]+0.005*[#   5]+0.001*[#   3]+0.001*[#   4]+0.001*[#   7]
          +0.001*[#   8]
    |psi|^2 = 0.014
==== e(   7) =     8.68674 eV ==== 

    |psi|^2 = 0.001
==== e(   8) =    10.57864 eV ==== 
     psi = 0.072*[#   1]+0.072*[#   5]+0.026*[#   3]+0.026*[#   4]+0.026*[#   7]
          +0.026*[#   8]
    |psi|^2 = 0.247
==== e(   9) =    10.67810 eV ==== 

    |psi|^2 = 0.001
==== e(  10) =    10.69811 eV ==== 
     psi = 0.140*[#   1]+0.140*[#   5]+0.049*[#   3]+0.049*[#   4]+0.049*[#   7]
          +0.049*[#   8]
    |psi|^2 = 0.474

 k =   0.2600000000  0.5196152423  0.0000000000
==== e(   1) =   -15.71002 eV ==== 
     psi = 0.241*[#   1]+0.241*[#   5]+0.127*[#   3]+0.127*[#   4]+0.127*[#   7]
          +0.127*[#   8]
    |psi|^2 = 0.990
==== e(   2) =   -13.62399 eV ==== 
     psi = 0.182*[#   1]+0.182*[#   5]+0.157*[#   3]+0.157*[#   4]+0.157*[#   7]
          +0.157*[#   8]
    |psi|^2 = 0.992
==== e(   3) =   -11.60295 eV ==== 
     psi = 0.230*[#   3]+0.230*[#   4]+0.230*[#   7]+0.230*[#   8]+0.033*[#   1]
          +0.033*[#   5]
    |psi|^2 = 0.986
==== e(   4) =    -3.19914 eV ==== 
     psi = 0.498*[#   2]+0.498*[#   6]
    |psi|^2 = 0.996
==== e(   5) =    -0.46819 eV ==== 
     psi = 0.493*[#   2]+0.493*[#   6]
    |psi|^2 = 0.987
==== e(   6) =     8.80030 eV ==== 
     psi = 0.001*[#   2]+0.001*[#   6]
    |psi|^2 = 0.002
==== e(   7) =     9.05909 eV ==== 
     psi = 0.009*[#   1]+0.009*[#   5]+0.002*[#   3]+0.002*[#   4]+0.002*[#   7]
          +0.002*[#   8]
    |psi|^2 = 0.024
==== e(   8) =    10.60561 eV ==== 
     psi = 0.212*[#   1]+0.212*[#   5]+0.070*[#   3]+0.070*[#   4]+0.070*[#   7]
          +0.070*[#   8]
    |psi|^2 = 0.705
==== e(   9) =    10.98366 eV ==== 

    |psi|^2 = 0.000
==== e(  10) =    11.16776 eV ==== 
     psi = 0.021*[#   1]+0.021*[#   5]+0.007*[#   3]+0.007*[#   4]+0.007*[#   7]
          +0.007*[#   8]
    |psi|^2 = 0.071

 k =   0.2600000000  0.5427092530  0.0000000000
==== e(   1) =   -15.38175 eV ==== 
     psi = 0.244*[#   1]+0.244*[#   5]+0.126*[#   3]+0.126*[#   4]+0.126*[#   7]
          +0.126*[#   8]
    |psi|^2 = 0.991
==== e(   2) =   -13.95345 eV ==== 
     psi = 0.178*[#   1]+0.178*[#   5]+0.159*[#   3]+0.159*[#   4]+0.159*[#   7]
          +0.159*[#   8]
    |psi|^2 = 0.991
==== e(   3) =   -11.68409 eV ==== 
     psi = 0.229*[#   3]+0.229*[#   4]+0.229*[#   7]+0.229*[#   8]+0.034*[#   1]
          +0.034*[#   5]
    |psi|^2 = 0.986
==== e(   4) =    -2.92415 eV ==== 
     psi = 0.498*[#   2]+0.498*[#   6]
    |psi|^2 = 0.996
==== e(   5) =    -0.75480 eV ==== 
     psi = 0.493*[#   2]+0.493*[#   6]
    |psi|^2 = 0.987
==== e(   6) =     8.84965 eV ==== 
     psi = 0.002*[#   2]+0.002*[#   6]
    |psi|^2 = 0.003
==== e(   7) =     9.58247 eV ==== 
     psi = 0.016*[#   1]+0.016*[#   5]+0.003*[#   3]+0.003*[#   4]+0.003*[#   7]
          +0.003*[#   8]
    |psi|^2 = 0.045
==== e(   8) =    10.56726 eV ==== 
     psi = 0.212*[#   1]+0.212*[#   5]+0.067*[#   3]+0.067*[#   4]+0.067*[#   7]
          +0.067*[#   8]
    |psi|^2 = 0.692
==== e(   9) =    11.09328 eV ==== 
     psi = 0.038*[#   1]+0.038*[#   5]+0.018*[#   3]+0.018*[#   4]+0.018*[#   7]
          +0.018*[#   8]
    |psi|^2 = 0.147
==== e(  10) =    11.36411 eV ==== 

    |psi|^2 = 0.000

 k =   0.2600000000  0.5658032638  0.0000000000
==== e(   1) =   -15.13117 eV ==== 
     psi = 0.254*[#   1]+0.254*[#   5]+0.121*[#   3]+0.121*[#   4]+0.121*[#   7]
          +0.121*[#   8]
    |psi|^2 = 0.993
==== e(   2) =   -14.20618 eV ==== 
     psi = 0.168*[#   1]+0.168*[#   5]+0.163*[#   3]+0.163*[#   4]+0.163*[#   7]
          +0.163*[#   8]
    |psi|^2 = 0.989
==== e(   3) =   -11.72361 eV ==== 
     psi = 0.229*[#   3]+0.229*[#   4]+0.229*[#   7]+0.229*[#   8]+0.035*[#   1]
          +0.035*[#   5]
    |psi|^2 = 0.986
==== e(   4) =    -2.75318 eV ==== 
     psi = 0.498*[#   2]+0.498*[#   6]
    |psi|^2 = 0.996
==== e(   5) =    -0.93159 eV ==== 
     psi = 0.493*[#   2]+0.493*[#   6]
    |psi|^2 = 0.987
==== e(   6) =     8.86569 eV ==== 
     psi = 0.002*[#   2]+0.002*[#   6]
    |psi|^2 = 0.004
==== e(   7) =    10.08444 eV ==== 
     psi = 0.032*[#   1]+0.032*[#   5]+0.008*[#   3]+0.008*[#   4]+0.008*[#   7]
          +0.008*[#   8]
    |psi|^2 = 0.097
==== e(   8) =    10.47886 eV ==== 
     psi = 0.163*[#   1]+0.163*[#   5]+0.047*[#   3]+0.047*[#   4]+0.047*[#   7]
          +0.047*[#   8]
    |psi|^2 = 0.514
==== e(   9) =    10.77049 eV ==== 
     psi = 0.055*[#   1]+0.055*[#   5]+0.025*[#   3]+0.025*[#   4]+0.025*[#   7]
          +0.025*[#   8]
    |psi|^2 = 0.212
==== e(  10) =    11.71985 eV ==== 

    |psi|^2 = 0.000

 k =   0.2800000000  0.4849742261  0.0000000000
==== e(   1) =   -16.06117 eV ==== 
     psi = 0.242*[#   1]+0.242*[#   5]+0.126*[#   3]+0.126*[#   4]+0.126*[#   7]
          +0.126*[#   8]
    |psi|^2 = 0.988
==== e(   2) =   -13.20634 eV ==== 
     psi = 0.187*[#   1]+0.187*[#   5]+0.155*[#   3]+0.155*[#   4]+0.155*[#   7]
          +0.155*[#   8]
    |psi|^2 = 0.994
==== e(   3) =   -11.56115 eV ==== 
     psi = 0.233*[#   3]+0.233*[#   4]+0.233*[#   7]+0.233*[#   8]+0.027*[#   1]
          +0.027*[#   5]
    |psi|^2 = 0.985
==== e(   4) =    -3.51868 eV ==== 
     psi = 0.498*[#   2]+0.498*[#   6]
    |psi|^2 = 0.996
==== e(   5) =    -0.11962 eV ==== 
     psi = 0.494*[#   2]+0.494*[#   6]
    |psi|^2 = 0.987
==== e(   6) =     8.52695 eV ==== 
     psi = 0.005*[#   1]+0.005*[#   5]+0.001*[#   3]+0.001*[#   4]+0.001*[#   7]
          +0.001*[#   8]
    |psi|^2 = 0.014
==== e(   7) =     8.66056 eV ==== 

    |psi|^2 = 0.001
==== e(   8) =    10.59606 eV ==== 
     psi = 0.007*[#   1]+0.007*[#   5]+0.003*[#   3]+0.003*[#   4]+0.003*[#   7]
          +0.003*[#   8]
    |psi|^2 = 0.026
==== e(   9) =    10.66405 eV ==== 

    |psi|^2 = 0.001
==== e(  10) =    11.03234 eV ==== 
     psi = 0.227*[#   1]+0.227*[#   5]+0.066*[#   3]+0.066*[#   4]+0.066*[#   7]
          +0.066*[#   8]
    |psi|^2 = 0.718

 k =   0.2800000000  0.5080682369  0.0000000000
==== e(   1) =   -15.72031 eV ==== 
     psi = 0.239*[#   1]+0.239*[#   5]+0.128*[#   3]+0.128*[#   4]+0.128*[#   7]
          +0.128*[#   8]
    |psi|^2 = 0.990
==== e(   2) =   -13.48136 eV ==== 
     psi = 0.193*[#   1]+0.193*[#   5]+0.152*[#   3]+0.152*[#   4]+0.152*[#   7]
          +0.152*[#   8]
    |psi|^2 = 0.994
==== e(   3) =   -11.76601 eV ==== 
     psi = 0.234*[#   3]+0.234*[#   4]+0.234*[#   7]+0.234*[#   8]+0.024*[#   1]
          +0.024*[#   5]
    |psi|^2 = 0.985
==== e(   4) =    -3.17847 eV ==== 
     psi = 0.498*[#   2]+0.498*[#   6]
    |psi|^2 = 0.996
==== e(   5) =    -0.46807 eV ==== 
     psi = 0.494*[#   2]+0.494*[#   6]
    |psi|^2 = 0.988
==== e(   6) =     8.74510 eV ==== 

    |psi|^2 = 0.001
==== e(   7) =     9.03482 eV ==== 
     psi = 0.008*[#   1]+0.008*[#   5]+0.002*[#   3]+0.002*[#   4]+0.002*[#   7]
          +0.002*[#   8]
    |psi|^2 = 0.023
==== e(   8) =    10.96559 eV ==== 

    |psi|^2 = 0.000
==== e(   9) =    10.98217 eV ==== 
     psi = 0.189*[#   1]+0.189*[#   5]+0.061*[#   3]+0.061*[#   4]+0.061*[#   7]
          +0.061*[#   8]
    |psi|^2 = 0.621
==== e(  10) =    11.13661 eV ==== 
     psi = 0.040*[#   1]+0.040*[#   5]+0.014*[#   3]+0.014*[#   4]+0.014*[#   7]
          +0.014*[#   8]
    |psi|^2 = 0.135

 k =   0.2800000000  0.5311622477  0.0000000000
==== e(   1) =   -15.38405 eV ==== 
     psi = 0.239*[#   1]+0.239*[#   5]+0.128*[#   3]+0.128*[#   4]+0.128*[#   7]
          +0.128*[#   8]
    |psi|^2 = 0.991
==== e(   2) =   -13.77668 eV ==== 
     psi = 0.195*[#   1]+0.195*[#   5]+0.151*[#   3]+0.151*[#   4]+0.151*[#   7]
          +0.151*[#   8]
    |psi|^2 = 0.993
==== e(   3) =   -11.90730 eV ==== 
     psi = 0.234*[#   3]+0.234*[#   4]+0.234*[#   7]+0.234*[#   8]+0.024*[#   1]
          +0.024*[#   5]
    |psi|^2 = 0.984
==== e(   4) =    -2.86163 eV ==== 
     psi = 0.498*[#   2]+0.498*[#   6]
    |psi|^2 = 0.996
==== e(   5) =    -0.79068 eV ==== 
     psi = 0.495*[#   2]+0.495*[#   6]
    |psi|^2 = 0.989
==== e(   6) =     8.76890 eV ==== 

    |psi|^2 = 0.001
==== e(   7) =     9.54772 eV ==== 
     psi = 0.014*[#   1]+0.014*[#   5]+0.003*[#   3]+0.003*[#   4]+0.003*[#   7]
          +0.003*[#   8]
    |psi|^2 = 0.040
==== e(   8) =    10.93029 eV ==== 
     psi = 0.193*[#   1]+0.193*[#   5]+0.060*[#   3]+0.060*[#   4]+0.060*[#   7]
          +0.060*[#   8]
    |psi|^2 = 0.625
==== e(   9) =    11.31385 eV ==== 
     psi = 0.066*[#   1]+0.066*[#   5]+0.032*[#   3]+0.032*[#   4]+0.032*[#   7]
          +0.032*[#   8]
    |psi|^2 = 0.262
==== e(  10) =    11.35827 eV ==== 

    |psi|^2 = 0.000

 k =   0.2800000000  0.5542562584  0.0000000000
==== e(   1) =   -15.08097 eV ==== 
     psi = 0.243*[#   1]+0.243*[#   5]+0.127*[#   3]+0.127*[#   4]+0.127*[#   7]
          +0.127*[#   8]
    |psi|^2 = 0.992
==== e(   2) =   -14.05879 eV ==== 
     psi = 0.191*[#   1]+0.191*[#   5]+0.152*[#   3]+0.152*[#   4]+0.152*[#   7]
          +0.152*[#   8]
    |psi|^2 = 0.992
==== e(   3) =   -11.98883 eV ==== 
     psi = 0.234*[#   3]+0.234*[#   4]+0.234*[#   7]+0.234*[#   8]+0.024*[#   1]
          +0.024*[#   5]
    |psi|^2 = 0.984
==== e(   4) =    -2.60769 eV ==== 
     psi = 0.498*[#   2]+0.498*[#   6]
    |psi|^2 = 0.996
==== e(   5) =    -1.04807 eV ==== 
     psi = 0.495*[#   2]+0.495*[#   6]
    |psi|^2 = 0.989
==== e(   6) =     8.76838 eV ==== 

    |psi|^2 = 0.002
==== e(   7) =    10.04844 eV ==== 
     psi = 0.025*[#   1]+0.025*[#   5]+0.006*[#   3]+0.006*[#   4]+0.006*[#   7]
          +0.006*[#   8]
    |psi|^2 = 0.076
==== e(   8) =    10.82783 eV ==== 
     psi = 0.154*[#   1]+0.154*[#   5]+0.045*[#   3]+0.045*[#   4]+0.045*[#   7]
          +0.045*[#   8]
    |psi|^2 = 0.489
==== e(   9) =    11.15367 eV ==== 
     psi = 0.063*[#   1]+0.063*[#   5]+0.029*[#   3]+0.029*[#   4]+0.029*[#   7]
          +0.029*[#   8]
    |psi|^2 = 0.241
==== e(  10) =    11.78632 eV ==== 

    |psi|^2 = 0.000

 k =   0.2800000000  0.5773502692  0.0000000000
==== e(   1) =   -14.92654 eV ==== 
     psi = 0.250*[#   1]+0.250*[#   5]+0.124*[#   3]+0.124*[#   4]+0.124*[#   7]
          +0.124*[#   8]
    |psi|^2 = 0.994
==== e(   2) =   -14.20702 eV ==== 
     psi = 0.184*[#   1]+0.184*[#   5]+0.156*[#   3]+0.156*[#   4]+0.156*[#   7]
          +0.156*[#   8]
    |psi|^2 = 0.990
==== e(   3) =   -12.01542 eV ==== 
     psi = 0.234*[#   3]+0.234*[#   4]+0.234*[#   7]+0.234*[#   8]+0.024*[#   1]
          +0.024*[#   5]
    |psi|^2 = 0.984
==== e(   4) =    -2.50124 eV ==== 
     psi = 0.498*[#   2]+0.498*[#   6]
    |psi|^2 = 0.996
==== e(   5) =    -1.15580 eV ==== 
     psi = 0.495*[#   2]+0.495*[#   6]
    |psi|^2 = 0.989
==== e(   6) =     8.76586 eV ==== 

    |psi|^2 = 0.002
==== e(   7) =    10.43308 eV ==== 
     psi = 0.042*[#   1]+0.042*[#   5]+0.012*[#   3]+0.012*[#   4]+0.012*[#   7]
          +0.012*[#   8]
    |psi|^2 = 0.132
==== e(   8) =    10.59627 eV ==== 
     psi = 0.084*[#   1]+0.084*[#   5]+0.022*[#   3]+0.022*[#   4]+0.022*[#   7]
          +0.022*[#   8]
    |psi|^2 = 0.258
==== e(   9) =    11.06551 eV ==== 
     psi = 0.106*[#   1]+0.106*[#   5]+0.041*[#   3]+0.041*[#   4]+0.041*[#   7]
          +0.041*[#   8]
    |psi|^2 = 0.377
==== e(  10) =    12.05006 eV ==== 

    |psi|^2 = 0.000

 k =   0.3000000000  0.5196152423  0.0000000000
==== e(   1) =   -15.38568 eV ==== 
     psi = 0.237*[#   1]+0.237*[#   5]+0.129*[#   3]+0.129*[#   4]+0.129*[#   7]
          +0.129*[#   8]
    |psi|^2 = 0.991
==== e(   2) =   -13.70536 eV ==== 
     psi = 0.203*[#   1]+0.203*[#   5]+0.147*[#   3]+0.147*[#   4]+0.147*[#   7]
          +0.147*[#   8]
    |psi|^2 = 0.994
==== e(   3) =   -11.99335 eV ==== 
     psi = 0.237*[#   3]+0.237*[#   4]+0.237*[#   7]+0.237*[#   8]+0.018*[#   1]
          +0.018*[#   5]
    |psi|^2 = 0.983
==== e(   4) =    -2.84027 eV ==== 
     psi = 0.498*[#   2]+0.498*[#   6]
    |psi|^2 = 0.995
==== e(   5) =    -0.80250 eV ==== 
     psi = 0.495*[#   2]+0.495*[#   6]
    |psi|^2 = 0.990
==== e(   6) =     8.74124 eV ==== 

    |psi|^2 = 0.001
==== e(   7) =     9.53589 eV ==== 
     psi = 0.013*[#   1]+0.013*[#   5]+0.003*[#   3]+0.003*[#   4]+0.003*[#   7]
          +0.003*[#   8]
    |psi|^2 = 0.039
==== e(   8) =    11.08335 eV ==== 
     psi = 0.179*[#   1]+0.179*[#   5]+0.053*[#   3]+0.053*[#   4]+0.053*[#   7]
          +0.053*[#   8]
    |psi|^2 = 0.571
==== e(   9) =    11.35454 eV ==== 

    |psi|^2 = 0.000
==== e(  10) =    11.37346 eV ==== 
     psi = 0.084*[#   1]+0.084*[#   5]+0.042*[#   3]+0.042*[#   4]+0.042*[#   7]
          +0.042*[#   8]
    |psi|^2 = 0.336

 k =   0.3000000000  0.5427092530  0.0000000000
==== e(   1) =   -15.06343 eV ==== 
     psi = 0.236*[#   1]+0.236*[#   5]+0.130*[#   3]+0.130*[#   4]+0.130*[#   7]
          +0.130*[#   8]
    |psi|^2 = 0.992
==== e(   2) =   -13.95318 eV ==== 
     psi = 0.208*[#   1]+0.208*[#   5]+0.144*[#   3]+0.144*[#   4]+0.144*[#   7]
          +0.144*[#   8]
    |psi|^2 = 0.994
==== e(   3) =   -12.14669 eV ==== 
     psi = 0.239*[#   3]+0.239*[#   4]+0.239*[#   7]+0.239*[#   8]+0.013*[#   1]
          +0.013*[#   5]
    |psi|^2 = 0.983
==== e(   4) =    -2.52580 eV ==== 
     psi = 0.498*[#   2]+0.498*[#   6]
    |psi|^2 = 0.995
==== e(   5) =    -1.11487 eV ==== 
     psi = 0.496*[#   2]+0.496*[#   6]
    |psi|^2 = 0.991
==== e(   6) =     8.71696 eV ==== 

    |psi|^2 = 0.001
==== e(   7) =    10.02728 eV ==== 
     psi = 0.023*[#   1]+0.023*[#   5]+0.006*[#   3]+0.006*[#   4]+0.006*[#   7]
          +0.006*[#   8]
    |psi|^2 = 0.071
==== e(   8) =    11.02913 eV ==== 
     psi = 0.151*[#   1]+0.151*[#   5]+0.045*[#   3]+0.045*[#   4]+0.045*[#   7]
          +0.045*[#   8]
    |psi|^2 = 0.482
==== e(   9) =    11.39351 eV ==== 
     psi = 0.062*[#   1]+0.062*[#   5]+0.030*[#   3]+0.030*[#   4]+0.030*[#   7]
          +0.030*[#   8]
    |psi|^2 = 0.244
==== e(  10) =    11.80376 eV ==== 

    |psi|^2 = 0.000

 k =   0.3000000000  0.5658032638  0.0000000000
==== e(   1) =   -14.80145 eV ==== 
     psi = 0.240*[#   1]+0.240*[#   5]+0.128*[#   3]+0.128*[#   4]+0.128*[#   7]
          +0.128*[#   8]
    |psi|^2 = 0.993
==== e(   2) =   -14.17840 eV ==== 
     psi = 0.207*[#   1]+0.207*[#   5]+0.145*[#   3]+0.145*[#   4]+0.145*[#   7]
          +0.145*[#   8]
    |psi|^2 = 0.993
==== e(   3) =   -12.22276 eV ==== 
     psi = 0.240*[#   3]+0.240*[#   4]+0.240*[#   7]+0.240*[#   8]+0.011*[#   1]
          +0.011*[#   5]
    |psi|^2 = 0.982
==== e(   4) =    -2.29426 eV ==== 
     psi = 0.498*[#   2]+0.498*[#   6]
    |psi|^2 = 0.995
==== e(   5) =    -1.34474 eV ==== 
     psi = 0.496*[#   2]+0.496*[#   6]
    |psi|^2 = 0.991
==== e(   6) =     8.69894 eV ==== 

    |psi|^2 = 0.001
==== e(   7) =    10.47091 eV ==== 
     psi = 0.044*[#   1]+0.044*[#   5]+0.013*[#   3]+0.013*[#   4]+0.013*[#   7]
          +0.013*[#   8]
    |psi|^2 = 0.138
==== e(   8) =    10.86341 eV ==== 
     psi = 0.099*[#   1]+0.099*[#   5]+0.029*[#   3]+0.029*[#   4]+0.029*[#   7]
          +0.029*[#   8]
    |psi|^2 = 0.315
==== e(   9) =    11.32009 eV ==== 
     psi = 0.066*[#   1]+0.066*[#   5]+0.027*[#   3]+0.027*[#   4]+0.027*[#   7]
          +0.027*[#   8]
    |psi|^2 = 0.242
==== e(  10) =    12.23340 eV ==== 

    |psi|^2 = 0.000

 k =   0.3200000000  0.5542562584  0.0000000000
==== e(   1) =   -14.76165 eV ==== 
     psi = 0.235*[#   1]+0.235*[#   5]+0.131*[#   3]+0.131*[#   4]+0.131*[#   7]
          +0.131*[#   8]
    |psi|^2 = 0.993
==== e(   2) =   -14.15900 eV ==== 
     psi = 0.219*[#   1]+0.219*[#   5]+0.139*[#   3]+0.139*[#   4]+0.139*[#   7]
          +0.139*[#   8]
    |psi|^2 = 0.994
==== e(   3) =   -12.30004 eV ==== 
     psi = 0.243*[#   3]+0.243*[#   4]+0.243*[#   7]+0.243*[#   8]+0.005*[#   1]
          +0.005*[#   5]
    |psi|^2 = 0.981
==== e(   4) =    -2.20306 eV ==== 
     psi = 0.497*[#   2]+0.497*[#   6]
    |psi|^2 = 0.995
==== e(   5) =    -1.42978 eV ==== 
     psi = 0.496*[#   2]+0.496*[#   6]
    |psi|^2 = 0.992
==== e(   6) =     8.67558 eV ==== 

    |psi|^2 = 0.000
==== e(   7) =    10.46662 eV ==== 
     psi = 0.043*[#   1]+0.043*[#   5]+0.012*[#   3]+0.012*[#   4]+0.012*[#   7]
          +0.012*[#   8]
    |psi|^2 = 0.135
==== e(   8) =    10.98969 eV ==== 
     psi = 0.122*[#   1]+0.122*[#   5]+0.037*[#   3]+0.037*[#   4]+0.037*[#   7]
          +0.037*[#   8]
    |psi|^2 = 0.390
==== e(   9) =    11.41067 eV ==== 
     psi = 0.033*[#   1]+0.033*[#   5]+0.016*[#   3]+0.016*[#   4]+0.016*[#   7]
          +0.016*[#   8]
    |psi|^2 = 0.131
==== e(  10) =    12.27924 eV ==== 

    |psi|^2 = 0.000

 k =   0.3200000000  0.5773502692  0.0000000000
==== e(   1) =   -14.56626 eV ==== 
     psi = 0.235*[#   1]+0.235*[#   5]+0.131*[#   3]+0.131*[#   4]+0.131*[#   7]
          +0.131*[#   8]
    |psi|^2 = 0.994
==== e(   2) =   -14.32105 eV ==== 
     psi = 0.222*[#   1]+0.222*[#   5]+0.137*[#   3]+0.137*[#   4]+0.137*[#   7]
          +0.137*[#   8]
    |psi|^2 = 0.994
==== e(   3) =   -12.35280 eV ==== 
     psi = 0.244*[#   3]+0.244*[#   4]+0.244*[#   7]+0.244*[#   8]+0.002*[#   1]
          +0.002*[#   5]
    |psi|^2 = 0.981
==== e(   4) =    -1.99659 eV ==== 
     psi = 0.497*[#   2]+0.497*[#   6]
    |psi|^2 = 0.994
==== e(   5) =    -1.63380 eV ==== 
     psi = 0.496*[#   2]+0.496*[#   6]
    |psi|^2 = 0.993
==== e(   6) =     8.66025 eV ==== 

    |psi|^2 = 0.000
==== e(   7) =    10.75415 eV ==== 
     psi = 0.073*[#   1]+0.073*[#   5]+0.022*[#   3]+0.022*[#   4]+0.022*[#   7]
          +0.022*[#   8]
    |psi|^2 = 0.233
==== e(   8) =    10.87406 eV ==== 
     psi = 0.091*[#   1]+0.091*[#   5]+0.027*[#   3]+0.027*[#   4]+0.027*[#   7]
          +0.027*[#   8]
    |psi|^2 = 0.292
==== e(   9) =    11.37633 eV ==== 
     psi = 0.016*[#   1]+0.016*[#   5]+0.009*[#   3]+0.009*[#   4]+0.009*[#   7]
          +0.009*[#   8]
    |psi|^2 = 0.068
==== e(  10) =    12.62838 eV ==== 

    |psi|^2 = 0.000

Lowdin Charges: 

     Atom #   1: total charge =   3.9579, s =  0.8880, 
     Atom #   1: total charge =   3.9579, p =  3.0699, pz=  0.9881, px=  1.0409, py=  1.0409, 
     Atom #   2: total charge =   3.9579, s =  0.8880, 
     Atom #   2: total charge =   3.9579, p =  3.0699, pz=  0.9881, px=  1.0409, py=  1.0409, 
     Spilling Parameter:   0.0105

     PROJWFC      :      9.77s CPU      9.98s WALL


   This run was terminated on:  14:30:45  15Apr2024            

=------------------------------------------------------------------------------=
   JOB DONE.
=------------------------------------------------------------------------------=
