
     Program BANDS v.6.7MaX starts on 14Feb2024 at 16:18:13 

     This program is part of the open-source Quantum ESPRESSO suite
     for quantum simulation of materials; please cite
         "P. Giannozzi et al., J. Phys.:Condens. Matter 21 395502 (2009);
         "P. Giannozzi et al., J. Phys.:Condens. Matter 29 465901 (2017);
          URL http://www.quantum-espresso.org", 
     in publications or presentations arising from this work. More details at
     http://www.quantum-espresso.org/quote

     Parallel version (MPI), running on     1 processors

     MPI processes distributed on     1 nodes

     Reading xml data from directory:

     ./tmp/hBN.save/
     Message from routine read_pp_mesh:
     mesh size missing, using the one in header
     Message from routine read_pp_mesh:
     mesh size missing, using the one in header

     IMPORTANT: XC functional enforced from input :
     Exchange-correlation= PBE
                           (   1   4   3   4   0   0   0)
     Any further DFT definition will be discarded
     Please, verify this is what you really want


     G-vector sticks info
     --------------------
     sticks:   dense  smooth     PW     G-vecs:    dense   smooth      PW
     Sum         367     367    121                34633    34633    6017

     Reading collected, re-writing distributed wavefunctions
     high-symmetry point:  0.0000 0.0000 0.0000   x coordinate   0.0000
     high-symmetry point: -0.3333 0.5774 0.0000   x coordinate   0.6667
     high-symmetry point:  0.0000 0.5774 0.0000   x coordinate   1.0000
     high-symmetry point:  0.0000 0.0000 0.0000   x coordinate   1.5773

     Plottable bands (eV) written to file hBN.dat.gnu
     Bands written to file hBN.dat

 **************************************************************************

                    xk=(   0.00000,   0.00000,   0.00000  )

     point group D_3h (-62m)
     there are  6 classes
     the character table:

       E     2C3   3C2   s_h   2S3   3s_v 
A'_1   1.00  1.00  1.00  1.00  1.00  1.00
A'_2   1.00  1.00 -1.00  1.00  1.00 -1.00
E'     2.00 -1.00  0.00  2.00 -1.00  0.00
A''1   1.00  1.00  1.00 -1.00 -1.00 -1.00
A''2   1.00  1.00 -1.00 -1.00 -1.00  1.00
E''    2.00 -1.00  0.00 -2.00  1.00  0.00

     the symmetry operations in each class and the name of the first element:

     E        1
                                                                 
     2C3      3    4
                                                                 
     3C2      2    6    5
                                                                 
     s_h      7
                                                                 
     2S3      9   10
                                                                 
     3s_v     8   11   12
                                                                 

     Band symmetry, D_3h (-62m) point group:

     e(  1 -  1) =    -21.13808  eV     1   --> A'_1           
     e(  2 -  2) =     -8.72367  eV     1   --> A''2           
     e(  3 -  4) =     -4.82603  eV     2   --> E'             
     e(  5 -  5) =      1.21042  eV     1   --> A'_1           
     e(  6 -  6) =      2.20347  eV     1   --> A''2           
     e(  7 -  7) =      2.63180  eV     1   --> A'_1           
     e(  8 -  8) =      4.47896  eV     1   --> A''2           

 **************************************************************************

 **************************************************************************

                    xk=(  -0.01587,   0.02749,   0.00000  )

     point group C_s (m)    
     there are  2 classes
     the character table:

       E     s    
A'     1.00  1.00
A''    1.00 -1.00

     the symmetry operations in each class and the name of the first element:

     E        1
                                                                 
     s        2
                                                                 

     Band symmetry, C_s (m)     point group:

     e(  1 -  1) =    -21.12356  eV     1   --> A'             
     e(  2 -  2) =     -8.70413  eV     1   --> A''            
     e(  3 -  3) =     -4.89025  eV     1   --> A'             
     e(  4 -  4) =     -4.85598  eV     1   --> A'             
     e(  5 -  5) =      1.23573  eV     1   --> A'             
     e(  6 -  6) =      2.22639  eV     1   --> A''            
     e(  7 -  7) =      2.65629  eV     1   --> A'             
     e(  8 -  8) =      4.50053  eV     1   --> A''            

 **************************************************************************

 **************************************************************************

                    xk=(  -0.03174,   0.05499,   0.00000  )

     Band symmetry, C_s (m)     point group:

     e(  1 -  1) =    -21.07976  eV     1   --> A'             
     e(  2 -  2) =     -8.64517  eV     1   --> A''            
     e(  3 -  3) =     -5.07419  eV     1   --> A'             
     e(  4 -  4) =     -4.94442  eV     1   --> A'             
     e(  5 -  5) =      1.31120  eV     1   --> A'             
     e(  6 -  6) =      2.29510  eV     1   --> A''            
     e(  7 -  7) =      2.72961  eV     1   --> A'             
     e(  8 -  8) =      4.56507  eV     1   --> A''            

 **************************************************************************

 **************************************************************************

                    xk=(  -0.04761,   0.08248,   0.00000  )

     Band symmetry, C_s (m)     point group:

     e(  1 -  1) =    -21.00714  eV     1   --> A'             
     e(  2 -  2) =     -8.54738  eV     1   --> A''            
     e(  3 -  3) =     -5.36461  eV     1   --> A'             
     e(  4 -  4) =     -5.08943  eV     1   --> A'             
     e(  5 -  5) =      1.43553  eV     1   --> A'             
     e(  6 -  6) =      2.40923  eV     1   --> A''            
     e(  7 -  7) =      2.85142  eV     1   --> A'             
     e(  8 -  8) =      4.67141  eV     1   --> A''            

 **************************************************************************

 **************************************************************************

                    xk=(  -0.06349,   0.10998,   0.00000  )

     Band symmetry, C_s (m)     point group:

     e(  1 -  1) =    -20.90617  eV     1   --> A'             
     e(  2 -  2) =     -8.41157  eV     1   --> A''            
     e(  3 -  3) =     -5.74184  eV     1   --> A'             
     e(  4 -  4) =     -5.28659  eV     1   --> A'             
     e(  5 -  5) =      1.60734  eV     1   --> A'             
     e(  6 -  6) =      2.56808  eV     1   --> A''            
     e(  7 -  7) =      3.02131  eV     1   --> A'             
     e(  8 -  8) =      4.81738  eV     1   --> A''            

 **************************************************************************

 **************************************************************************

                    xk=(  -0.07936,   0.13747,   0.00000  )

     Band symmetry, C_s (m)     point group:

     e(  1 -  1) =    -20.77728  eV     1   --> A'             
     e(  2 -  2) =     -8.23763  eV     1   --> A''            
     e(  3 -  3) =     -6.18308  eV     1   --> A'             
     e(  4 -  4) =     -5.53070  eV     1   --> A'             
     e(  5 -  5) =      1.82562  eV     1   --> A'             
     e(  6 -  6) =      2.77063  eV     1   --> A''            
     e(  7 -  7) =      3.23899  eV     1   --> A'             
     e(  8 -  8) =      4.99882  eV     1   --> A''            

 **************************************************************************

 **************************************************************************

                    xk=(  -0.09523,   0.16496,   0.00000  )

     Band symmetry, C_s (m)     point group:

     e(  1 -  1) =    -20.62138  eV     1   --> A'             
     e(  2 -  2) =     -8.02675  eV     1   --> A''            
     e(  3 -  3) =     -6.66864  eV     1   --> A'             
     e(  4 -  4) =     -5.81509  eV     1   --> A'             
     e(  5 -  5) =      2.08974  eV     1   --> A'             
     e(  6 -  6) =      3.01469  eV     1   --> A''            
     e(  7 -  7) =      3.50425  eV     1   --> A'             
     e(  8 -  8) =      5.20664  eV     1   --> A''            

 **************************************************************************

 **************************************************************************

                    xk=(  -0.11110,   0.19246,   0.00000  )

     Band symmetry, C_s (m)     point group:

     e(  1 -  1) =    -20.43962  eV     1   --> A'             
     e(  2 -  2) =     -7.78052  eV     1   --> A''            
     e(  3 -  3) =     -7.18130  eV     1   --> A'             
     e(  4 -  4) =     -6.13353  eV     1   --> A'             
     e(  5 -  5) =      2.39932  eV     1   --> A'             
     e(  6 -  6) =      3.29604  eV     1   --> A''            
     e(  7 -  7) =      3.81697  eV     1   --> A'             
     e(  8 -  8) =      5.42024  eV     1   --> A''            

 **************************************************************************

 **************************************************************************

                    xk=(  -0.12697,   0.21995,   0.00000  )

     Band symmetry, C_s (m)     point group:

     e(  1 -  1) =    -20.23346  eV     1   --> A'             
     e(  2 -  2) =     -7.70661  eV     1   --> A'             
     e(  3 -  3) =     -7.50041  eV     1   --> A''            
     e(  4 -  4) =     -6.47851  eV     1   --> A'             
     e(  5 -  5) =      2.75420  eV     1   --> A'             
     e(  6 -  6) =      3.60527  eV     1   --> A''            
     e(  7 -  7) =      4.17709  eV     1   --> A'             
     e(  8 -  8) =      5.59051  eV     1   --> A''            

 **************************************************************************

 **************************************************************************

                    xk=(  -0.14284,   0.24744,   0.00000  )

     Band symmetry, C_s (m)     point group:

     e(  1 -  1) =    -20.00491  eV     1   --> A'             
     e(  2 -  2) =     -8.23347  eV     1   --> A'             
     e(  3 -  3) =     -7.18836  eV     1   --> A''            
     e(  4 -  4) =     -6.84308  eV     1   --> A'             
     e(  5 -  5) =      3.15415  eV     1   --> A'             
     e(  6 -  6) =      3.91789  eV     1   --> A''            
     e(  7 -  7) =      4.58456  eV     1   --> A'             
     e(  8 -  8) =      5.63398  eV     1   --> A''            

 **************************************************************************

 **************************************************************************

                    xk=(  -0.15871,   0.27494,   0.00000  )

     Band symmetry, C_s (m)     point group:

     e(  1 -  1) =    -19.75628  eV     1   --> A'             
     e(  2 -  2) =     -8.75037  eV     1   --> A'             
     e(  3 -  3) =     -7.22015  eV     1   --> A'             
     e(  4 -  4) =     -6.84745  eV     1   --> A''            
     e(  5 -  5) =      3.59898  eV     1   --> A'             
     e(  6 -  6) =      4.16074  eV     1   --> A''            
     e(  7 -  7) =      5.03930  eV     1   --> A'             
     e(  8 -  8) =      5.56501  eV     1   --> A''            

 **************************************************************************

 **************************************************************************

                    xk=(  -0.17459,   0.30243,   0.00000  )

     Band symmetry, C_s (m)     point group:

     e(  1 -  1) =    -19.49096  eV     1   --> A'             
     e(  2 -  2) =     -9.24911  eV     1   --> A'             
     e(  3 -  3) =     -7.60417  eV     1   --> A'             
     e(  4 -  4) =     -6.48122  eV     1   --> A''            
     e(  5 -  5) =      4.08826  eV     1   --> A'             
     e(  6 -  6) =      4.17024  eV     1   --> A''            
     e(  7 -  7) =      5.54121  eV     1   --> A'             
     e(  8 -  8) =      5.62207  eV     1   --> A''            

 **************************************************************************

 **************************************************************************

                    xk=(  -0.19046,   0.32993,   0.00000  )

     Band symmetry, C_s (m)     point group:

     e(  1 -  1) =    -19.21323  eV     1   --> A'             
     e(  2 -  2) =     -9.72058  eV     1   --> A'             
     e(  3 -  3) =     -7.98956  eV     1   --> A'             
     e(  4 -  4) =     -6.09452  eV     1   --> A''            
     e(  5 -  5) =      3.89523  eV     1   --> A''            
     e(  6 -  6) =      4.62129  eV     1   --> A'             
     e(  7 -  7) =      5.94090  eV     1   --> A''            
     e(  8 -  8) =      6.09005  eV     1   --> A'             

 **************************************************************************

 **************************************************************************

                    xk=(  -0.20633,   0.35742,   0.00000  )

     Band symmetry, C_s (m)     point group:

     e(  1 -  1) =    -18.92821  eV     1   --> A'             
     e(  2 -  2) =    -10.15571  eV     1   --> A'             
     e(  3 -  3) =     -8.37088  eV     1   --> A'             
     e(  4 -  4) =     -5.69321  eV     1   --> A''            
     e(  5 -  5) =      3.48426  eV     1   --> A''            
     e(  6 -  6) =      5.19716  eV     1   --> A'             
     e(  7 -  7) =      6.41925  eV     1   --> A''            
     e(  8 -  8) =      6.68554  eV     1   --> A'             

 **************************************************************************

 **************************************************************************

                    xk=(  -0.22220,   0.38491,   0.00000  )

     Band symmetry, C_s (m)     point group:

     e(  1 -  1) =    -18.64327  eV     1   --> A'             
     e(  2 -  2) =    -10.54668  eV     1   --> A'             
     e(  3 -  3) =     -8.74478  eV     1   --> A'             
     e(  4 -  4) =     -5.28623  eV     1   --> A''            
     e(  5 -  5) =      3.03582  eV     1   --> A''            
     e(  6 -  6) =      5.81406  eV     1   --> A'             
     e(  7 -  7) =      6.97817  eV     1   --> A''            
     e(  8 -  8) =      7.32703  eV     1   --> A'             

 **************************************************************************

 **************************************************************************

                    xk=(  -0.23807,   0.41241,   0.00000  )

     Band symmetry, C_s (m)     point group:

     e(  1 -  1) =    -18.36666  eV     1   --> A'             
     e(  2 -  2) =    -10.88208  eV     1   --> A'             
     e(  3 -  3) =     -9.10614  eV     1   --> A'             
     e(  4 -  4) =     -4.88307  eV     1   --> A''            
     e(  5 -  5) =      2.59723  eV     1   --> A''            
     e(  6 -  6) =      6.46954  eV     1   --> A'             
     e(  7 -  7) =      7.57953  eV     1   --> A''            
     e(  8 -  8) =      8.01351  eV     1   --> A'             

 **************************************************************************

 **************************************************************************

                    xk=(  -0.25394,   0.43990,   0.00000  )

     Band symmetry, C_s (m)     point group:

     e(  1 -  1) =    -18.10923  eV     1   --> A'             
     e(  2 -  2) =    -11.15177  eV     1   --> A'             
     e(  3 -  3) =     -9.45150  eV     1   --> A'             
     e(  4 -  4) =     -4.49830  eV     1   --> A''            
     e(  5 -  5) =      2.19372  eV     1   --> A''            
     e(  6 -  6) =      7.15874  eV     1   --> A'             
     e(  7 -  7) =      8.18384  eV     1   --> A''            
     e(  8 -  8) =      8.74253  eV     1   --> A'             

 **************************************************************************

 **************************************************************************

                    xk=(  -0.26981,   0.46739,   0.00000  )

     Band symmetry, C_s (m)     point group:

     e(  1 -  1) =    -17.88288  eV     1   --> A'             
     e(  2 -  2) =    -11.34570  eV     1   --> A'             
     e(  3 -  3) =     -9.77746  eV     1   --> A'             
     e(  4 -  4) =     -4.14993  eV     1   --> A''            
     e(  5 -  5) =      1.84538  eV     1   --> A''            
     e(  6 -  6) =      7.87253  eV     1   --> A'             
     e(  7 -  7) =      8.70729  eV     1   --> A''            
     e(  8 -  8) =      9.50709  eV     1   --> A'             

 **************************************************************************

 **************************************************************************

                    xk=(  -0.28569,   0.49489,   0.00000  )

     Band symmetry, C_s (m)     point group:

     e(  1 -  1) =    -17.69909  eV     1   --> A'             
     e(  2 -  2) =    -11.45487  eV     1   --> A'             
     e(  3 -  3) =    -10.07892  eV     1   --> A'             
     e(  4 -  4) =     -3.85797  eV     1   --> A''            
     e(  5 -  5) =      1.56887  eV     1   --> A''            
     e(  6 -  6) =      8.59132  eV     1   --> A'             
     e(  7 -  7) =      8.99921  eV     1   --> A''            
     e(  8 -  8) =     10.27038  eV     1   --> A'             

 **************************************************************************

 **************************************************************************

                    xk=(  -0.30156,   0.52238,   0.00000  )

     Band symmetry, C_s (m)     point group:

     e(  1 -  1) =    -17.56716  eV     1   --> A'             
     e(  2 -  2) =    -11.48058  eV     1   --> A'             
     e(  3 -  3) =    -10.34662  eV     1   --> A'             
     e(  4 -  4) =     -3.64153  eV     1   --> A''            
     e(  5 -  5) =      1.37629  eV     1   --> A''            
     e(  6 -  6) =      9.03968  eV     1   --> A''            
     e(  7 -  7) =      9.26302  eV     1   --> A'             
     e(  8 -  8) =     10.75356  eV     1   --> A'             

 **************************************************************************

 **************************************************************************

                    xk=(  -0.31743,   0.54988,   0.00000  )

     Band symmetry, C_s (m)     point group:

     e(  1 -  1) =    -17.49051  eV     1   --> A'             
     e(  2 -  2) =    -11.44143  eV     1   --> A'             
     e(  3 -  3) =    -10.55736  eV     1   --> A'             
     e(  4 -  4) =     -3.51264  eV     1   --> A''            
     e(  5 -  5) =      1.27065  eV     1   --> A''            
     e(  6 -  6) =      8.98986  eV     1   --> A''            
     e(  7 -  7) =      9.75394  eV     1   --> A'             
     e(  8 -  8) =     10.98074  eV     1   --> A'             

 **************************************************************************

 **************************************************************************

                    xk=(  -0.33330,   0.57737,   0.00000  )

     Band symmetry, C_s (m)     point group:

     e(  1 -  1) =    -17.46636  eV     1   --> A'             
     e(  2 -  2) =    -11.40392  eV     1   --> A'             
     e(  3 -  3) =    -10.64932  eV     1   --> A'             
     e(  4 -  4) =     -3.47162  eV     1   --> A''            
     e(  5 -  5) =      1.24040  eV     1   --> A''            
     e(  6 -  6) =      8.96100  eV     1   --> A''            
     e(  7 -  7) =      9.90980  eV     1   --> A'             
     e(  8 -  8) =     11.18474  eV     1   --> A'             

 **************************************************************************

 **************************************************************************

                    xk=(  -0.30300,   0.57737,   0.00000  )

     Band symmetry, C_s (m)     point group:

     e(  1 -  1) =    -17.48527  eV     1   --> A'             
     e(  2 -  2) =    -11.45587  eV     1   --> A'             
     e(  3 -  3) =    -10.55169  eV     1   --> A'             
     e(  4 -  4) =     -3.50390  eV     1   --> A''            
     e(  5 -  5) =      1.25964  eV     1   --> A''            
     e(  6 -  6) =      8.99448  eV     1   --> A''            
     e(  7 -  7) =      9.81689  eV     1   --> A'             
     e(  8 -  8) =     10.96621  eV     1   --> A'             

 **************************************************************************

 **************************************************************************

                    xk=(  -0.27270,   0.57737,   0.00000  )

     Band symmetry, C_s (m)     point group:

     e(  1 -  1) =    -17.53445  eV     1   --> A'             
     e(  2 -  2) =    -11.58121  eV     1   --> A'             
     e(  3 -  3) =    -10.29895  eV     1   --> A'             
     e(  4 -  4) =     -3.58551  eV     1   --> A''            
     e(  5 -  5) =      1.30168  eV     1   --> A''            
     e(  6 -  6) =      9.09696  eV     1   --> A''            
     e(  7 -  7) =      9.59710  eV     1   --> A'             
     e(  8 -  8) =     10.61402  eV     1   --> A'             

 **************************************************************************

 **************************************************************************

                    xk=(  -0.24240,   0.57736,   0.00000  )

     Band symmetry, C_s (m)     point group:

     e(  1 -  1) =    -17.60363  eV     1   --> A'             
     e(  2 -  2) =    -11.72778  eV     1   --> A'             
     e(  3 -  3) =     -9.95949  eV     1   --> A'             
     e(  4 -  4) =     -3.69785  eV     1   --> A''            
     e(  5 -  5) =      1.34560  eV     1   --> A''            
     e(  6 -  6) =      9.25683  eV     1   --> A''            
     e(  7 -  7) =      9.28658  eV     1   --> A'             
     e(  8 -  8) =     10.27031  eV     1   --> A'             

 **************************************************************************

 **************************************************************************

                    xk=(  -0.21210,   0.57736,   0.00000  )

     Band symmetry, C_s (m)     point group:

     e(  1 -  1) =    -17.68314  eV     1   --> A'             
     e(  2 -  2) =    -11.87057  eV     1   --> A'             
     e(  3 -  3) =     -9.57518  eV     1   --> A'             
     e(  4 -  4) =     -3.82383  eV     1   --> A''            
     e(  5 -  5) =      1.37901  eV     1   --> A''            
     e(  6 -  6) =      8.89210  eV     1   --> A'             
     e(  7 -  7) =      9.44366  eV     1   --> A''            
     e(  8 -  8) =      9.96391  eV     1   --> A'             

 **************************************************************************

 **************************************************************************

                    xk=(  -0.18180,   0.57736,   0.00000  )

     Band symmetry, C_s (m)     point group:

     e(  1 -  1) =    -17.76541  eV     1   --> A'             
     e(  2 -  2) =    -12.00061  eV     1   --> A'             
     e(  3 -  3) =     -9.17444  eV     1   --> A'             
     e(  4 -  4) =     -3.95215  eV     1   --> A''            
     e(  5 -  5) =      1.39675  eV     1   --> A''            
     e(  6 -  6) =      8.42542  eV     1   --> A'             
     e(  7 -  7) =      9.61333  eV     1   --> A''            
     e(  8 -  8) =      9.70369  eV     1   --> A'             

 **************************************************************************

 **************************************************************************

                    xk=(  -0.15150,   0.57736,   0.00000  )

     Band symmetry, C_s (m)     point group:

     e(  1 -  1) =    -17.84377  eV     1   --> A'             
     e(  2 -  2) =    -12.11331  eV     1   --> A'             
     e(  3 -  3) =     -8.77898  eV     1   --> A'             
     e(  4 -  4) =     -4.07212  eV     1   --> A''            
     e(  5 -  5) =      1.40038  eV     1   --> A''            
     e(  6 -  6) =      7.92128  eV     1   --> A'             
     e(  7 -  7) =      9.48936  eV     1   --> A'             
     e(  8 -  8) =      9.72625  eV     1   --> A''            

 **************************************************************************

 **************************************************************************

                    xk=(  -0.12120,   0.57736,   0.00000  )

     Band symmetry, C_s (m)     point group:

     e(  1 -  1) =    -17.91358  eV     1   --> A'             
     e(  2 -  2) =    -12.20713  eV     1   --> A'             
     e(  3 -  3) =     -8.41131  eV     1   --> A'             
     e(  4 -  4) =     -4.17720  eV     1   --> A''            
     e(  5 -  5) =      1.39396  eV     1   --> A''            
     e(  6 -  6) =      7.42761  eV     1   --> A'             
     e(  7 -  7) =      9.31724  eV     1   --> A'             
     e(  8 -  8) =      9.77125  eV     1   --> A''            

 **************************************************************************

 **************************************************************************

                    xk=(  -0.09090,   0.57736,   0.00000  )

     Band symmetry, C_s (m)     point group:

     e(  1 -  1) =    -17.97113  eV     1   --> A'             
     e(  2 -  2) =    -12.28062  eV     1   --> A'             
     e(  3 -  3) =     -8.09301  eV     1   --> A'             
     e(  4 -  4) =     -4.26296  eV     1   --> A''            
     e(  5 -  5) =      1.38248  eV     1   --> A''            
     e(  6 -  6) =      6.99051  eV     1   --> A'             
     e(  7 -  7) =      9.18488  eV     1   --> A'             
     e(  8 -  8) =      9.69120  eV     1   --> A'             

 **************************************************************************

 **************************************************************************

                    xk=(  -0.06060,   0.57735,   0.00000  )

     Band symmetry, C_s (m)     point group:

     e(  1 -  1) =    -18.01396  eV     1   --> A'             
     e(  2 -  2) =    -12.33345  eV     1   --> A'             
     e(  3 -  3) =     -7.84609  eV     1   --> A'             
     e(  4 -  4) =     -4.32654  eV     1   --> A''            
     e(  5 -  5) =      1.37051  eV     1   --> A''            
     e(  6 -  6) =      6.64854  eV     1   --> A'             
     e(  7 -  7) =      9.09084  eV     1   --> A'             
     e(  8 -  8) =      9.55828  eV     1   --> A'             

 **************************************************************************

 **************************************************************************

                    xk=(  -0.03030,   0.57735,   0.00000  )

     Band symmetry, C_s (m)     point group:

     e(  1 -  1) =    -18.04038  eV     1   --> A'             
     e(  2 -  2) =    -12.36546  eV     1   --> A'             
     e(  3 -  3) =     -7.68942  eV     1   --> A'             
     e(  4 -  4) =     -4.36584  eV     1   --> A''            
     e(  5 -  5) =      1.36170  eV     1   --> A''            
     e(  6 -  6) =      6.43078  eV     1   --> A'             
     e(  7 -  7) =      9.03441  eV     1   --> A'             
     e(  8 -  8) =      9.48003  eV     1   --> A'             

 **************************************************************************

 **************************************************************************

                    xk=(   0.00000,   0.57735,   0.00000  )

     point group C_2v (mm2) 
     there are  4 classes
     the character table:

       E     C2    s_v   s_v' 
A_1    1.00  1.00  1.00  1.00
A_2    1.00  1.00 -1.00 -1.00
B_1    1.00 -1.00  1.00 -1.00
B_2    1.00 -1.00 -1.00  1.00

     the symmetry operations in each class and the name of the first element:

     E        1
                                                                 
     C2       2
                                                                 
     s_v      3
                                                                 
     s_v'     4
                                                                 

     Band symmetry, C_2v (mm2)  point group:

     e(  1 -  1) =    -18.04924  eV     1   --> A_1  D_1  S_1  
     e(  2 -  2) =    -12.37597  eV     1   --> A_1  D_1  S_1  
     e(  3 -  3) =     -7.63558  eV     1   --> B_1  D_3  S_3  
     e(  4 -  4) =     -4.37878  eV     1   --> B_2  D_4  S_4  
     e(  5 -  5) =      1.35850  eV     1   --> B_2  D_4  S_4  
     e(  6 -  6) =      6.35611  eV     1   --> A_1  D_1  S_1  
     e(  7 -  7) =      9.01568  eV     1   --> A_1  D_1  S_1  
     e(  8 -  8) =      9.45420  eV     1   --> A_1  D_1  S_1  

 **************************************************************************

 **************************************************************************

                    xk=(   0.00000,   0.54528,   0.00000  )

     Band symmetry, C_2v (mm2)  point group:

     e(  1 -  1) =    -18.09432  eV     1   --> A_1  D_1  S_1  
     e(  2 -  2) =    -12.30605  eV     1   --> A_1  D_1  S_1  
     e(  3 -  3) =     -7.61960  eV     1   --> B_1  D_3  S_3  
     e(  4 -  4) =     -4.44971  eV     1   --> B_2  D_4  S_4  
     e(  5 -  5) =      1.45013  eV     1   --> B_2  D_4  S_4  
     e(  6 -  6) =      6.32685  eV     1   --> A_1  D_1  S_1  
     e(  7 -  7) =      8.48031  eV     1   --> A_1  D_1  S_1  
     e(  8 -  8) =      9.18501  eV     1   --> B_2  D_4  S_4  

 **************************************************************************

 **************************************************************************

                    xk=(   0.00000,   0.51320,   0.00000  )

     Band symmetry, C_2v (mm2)  point group:

     e(  1 -  1) =    -18.22256  eV     1   --> A_1  D_1  S_1  
     e(  2 -  2) =    -12.10333  eV     1   --> A_1  D_1  S_1  
     e(  3 -  3) =     -7.57195  eV     1   --> B_1  D_3  S_3  
     e(  4 -  4) =     -4.64824  eV     1   --> B_2  D_4  S_4  
     e(  5 -  5) =      1.70952  eV     1   --> B_2  D_4  S_4  
     e(  6 -  6) =      6.22068  eV     1   --> A_1  D_1  S_1  
     e(  7 -  7) =      7.86234  eV     1   --> A_1  D_1  S_1  
     e(  8 -  8) =      8.46255  eV     1   --> B_2  D_4  S_4  

 **************************************************************************

 **************************************************************************

                    xk=(   0.00000,   0.48113,   0.00000  )

     Band symmetry, C_2v (mm2)  point group:

     e(  1 -  1) =    -18.41634  eV     1   --> A_1  D_1  S_1  
     e(  2 -  2) =    -11.78580  eV     1   --> A_1  D_1  S_1  
     e(  3 -  3) =     -7.49258  eV     1   --> B_1  D_3  S_3  
     e(  4 -  4) =     -4.94112  eV     1   --> B_2  D_4  S_4  
     e(  5 -  5) =      2.10003  eV     1   --> B_2  D_4  S_4  
     e(  6 -  6) =      5.98527  eV     1   --> A_1  D_1  S_1  
     e(  7 -  7) =      7.37825  eV     1   --> A_1  D_1  S_1  
     e(  8 -  8) =      7.76182  eV     1   --> B_2  D_4  S_4  

 **************************************************************************

 **************************************************************************

                    xk=(   0.00000,   0.44905,   0.00000  )

     Band symmetry, C_2v (mm2)  point group:

     e(  1 -  1) =    -18.65486  eV     1   --> A_1  D_1  S_1  
     e(  2 -  2) =    -11.37585  eV     1   --> A_1  D_1  S_1  
     e(  3 -  3) =     -7.38292  eV     1   --> B_1  D_3  S_3  
     e(  4 -  4) =     -5.29300  eV     1   --> B_2  D_4  S_4  
     e(  5 -  5) =      2.57683  eV     1   --> B_2  D_4  S_4  
     e(  6 -  6) =      5.59291  eV     1   --> A_1  D_1  S_1  
     e(  7 -  7) =      7.02022  eV     1   --> A_1  D_1  S_1  
     e(  8 -  8) =      7.10481  eV     1   --> B_2  D_4  S_4  

 **************************************************************************

 **************************************************************************

                    xk=(   0.00000,   0.41698,   0.00000  )

     Band symmetry, C_2v (mm2)  point group:

     e(  1 -  1) =    -18.91914  eV     1   --> A_1  D_1  S_1  
     e(  2 -  2) =    -10.89454  eV     1   --> A_1  D_1  S_1  
     e(  3 -  3) =     -7.24414  eV     1   --> B_1  D_3  S_3  
     e(  4 -  4) =     -5.67411  eV     1   --> B_2  D_4  S_4  
     e(  5 -  5) =      3.09572  eV     1   --> B_2  D_4  S_4  
     e(  6 -  6) =      5.10282  eV     1   --> A_1  D_1  S_1  
     e(  7 -  7) =      6.50492  eV     1   --> B_2  D_4  S_4  
     e(  8 -  8) =      6.60858  eV     1   --> A_1  D_1  S_1  

 **************************************************************************

 **************************************************************************

                    xk=(   0.00000,   0.38490,   0.00000  )

     Band symmetry, C_2v (mm2)  point group:

     e(  1 -  1) =    -19.19407  eV     1   --> A_1  D_1  S_1  
     e(  2 -  2) =    -10.35993  eV     1   --> A_1  D_1  S_1  
     e(  3 -  3) =     -7.07840  eV     1   --> B_1  D_3  S_3  
     e(  4 -  4) =     -6.06399  eV     1   --> B_2  D_4  S_4  
     e(  5 -  5) =      3.60290  eV     1   --> B_2  D_4  S_4  
     e(  6 -  6) =      4.58702  eV     1   --> A_1  D_1  S_1  
     e(  7 -  7) =      5.98474  eV     1   --> B_2  D_4  S_4  
     e(  8 -  8) =      6.09086  eV     1   --> A_1  D_1  S_1  

 **************************************************************************

 **************************************************************************

                    xk=(   0.00000,   0.35283,   0.00000  )

     Band symmetry, C_2v (mm2)  point group:

     e(  1 -  1) =    -19.46841  eV     1   --> A_1  D_1  S_1  
     e(  2 -  2) =     -9.78760  eV     1   --> A_1  D_1  S_1  
     e(  3 -  3) =     -6.88845  eV     1   --> B_1  D_3  S_3  
     e(  4 -  4) =     -6.44771  eV     1   --> B_2  D_4  S_4  
     e(  5 -  5) =      4.00310  eV     1   --> B_2  D_4  S_4  
     e(  6 -  6) =      4.08323  eV     1   --> A_1  D_1  S_1  
     e(  7 -  7) =      5.56465  eV     1   --> A_1  D_1  S_1  
     e(  8 -  8) =      5.60534  eV     1   --> B_2  D_4  S_4  

 **************************************************************************

 **************************************************************************

                    xk=(   0.00000,   0.32075,   0.00000  )

     Band symmetry, C_2v (mm2)  point group:

     e(  1 -  1) =    -19.73387  eV     1   --> A_1  D_1  S_1  
     e(  2 -  2) =     -9.19034  eV     1   --> A_1  D_1  S_1  
     e(  3 -  3) =     -6.81510  eV     1   --> B_2  D_4  S_4  
     e(  4 -  4) =     -6.67724  eV     1   --> B_1  D_3  S_3  
     e(  5 -  5) =      3.60817  eV     1   --> A_1  D_1  S_1  
     e(  6 -  6) =      4.12130  eV     1   --> B_2  D_4  S_4  
     e(  7 -  7) =      5.06844  eV     1   --> A_1  D_1  S_1  
     e(  8 -  8) =      5.49230  eV     1   --> B_2  D_4  S_4  

 **************************************************************************

 **************************************************************************

                    xk=(   0.00000,   0.28868,   0.00000  )

     Band symmetry, C_2v (mm2)  point group:

     e(  1 -  1) =    -19.98445  eV     1   --> A_1  D_1  S_1  
     e(  2 -  2) =     -8.57980  eV     1   --> A_1  D_1  S_1  
     e(  3 -  3) =     -7.15952  eV     1   --> B_2  D_4  S_4  
     e(  4 -  4) =     -6.44857  eV     1   --> B_1  D_3  S_3  
     e(  5 -  5) =      3.16965  eV     1   --> A_1  D_1  S_1  
     e(  6 -  6) =      3.93119  eV     1   --> B_2  D_4  S_4  
     e(  7 -  7) =      4.61311  eV     1   --> A_1  D_1  S_1  
     e(  8 -  8) =      5.58312  eV     1   --> B_2  D_4  S_4  

 **************************************************************************

 **************************************************************************

                    xk=(   0.00000,   0.25660,   0.00000  )

     Band symmetry, C_2v (mm2)  point group:

     e(  1 -  1) =    -20.21622  eV     1   --> A_1  D_1  S_1  
     e(  2 -  2) =     -7.96847  eV     1   --> A_1  D_1  S_1  
     e(  3 -  3) =     -7.47630  eV     1   --> B_2  D_4  S_4  
     e(  4 -  4) =     -6.20807  eV     1   --> B_1  D_3  S_3  
     e(  5 -  5) =      2.77144  eV     1   --> A_1  D_1  S_1  
     e(  6 -  6) =      3.62778  eV     1   --> B_2  D_4  S_4  
     e(  7 -  7) =      4.20240  eV     1   --> A_1  D_1  S_1  
     e(  8 -  8) =      5.58286  eV     1   --> B_2  D_4  S_4  

 **************************************************************************

 **************************************************************************

                    xk=(   0.00000,   0.22453,   0.00000  )

     Band symmetry, C_2v (mm2)  point group:

     e(  1 -  1) =    -20.42585  eV     1   --> A_1  D_1  S_1  
     e(  2 -  2) =     -7.76154  eV     1   --> B_2  D_4  S_4  
     e(  3 -  3) =     -7.36867  eV     1   --> A_1  D_1  S_1  
     e(  4 -  4) =     -5.96141  eV     1   --> B_1  D_3  S_3  
     e(  5 -  5) =      2.41569  eV     1   --> A_1  D_1  S_1  
     e(  6 -  6) =      3.31659  eV     1   --> B_2  D_4  S_4  
     e(  7 -  7) =      3.83795  eV     1   --> A_1  D_1  S_1  
     e(  8 -  8) =      5.43018  eV     1   --> B_2  D_4  S_4  

 **************************************************************************

 **************************************************************************

                    xk=(   0.00000,   0.19245,   0.00000  )

     Band symmetry, C_2v (mm2)  point group:

     e(  1 -  1) =    -20.61080  eV     1   --> A_1  D_1  S_1  
     e(  2 -  2) =     -8.01238  eV     1   --> B_2  D_4  S_4  
     e(  3 -  3) =     -6.79344  eV     1   --> A_1  D_1  S_1  
     e(  4 -  4) =     -5.71596  eV     1   --> B_1  D_3  S_3  
     e(  5 -  5) =      2.10380  eV     1   --> A_1  D_1  S_1  
     e(  6 -  6) =      3.03088  eV     1   --> B_2  D_4  S_4  
     e(  7 -  7) =      3.52061  eV     1   --> A_1  D_1  S_1  
     e(  8 -  8) =      5.21895  eV     1   --> B_2  D_4  S_4  

 **************************************************************************

 **************************************************************************

                    xk=(   0.00000,   0.16038,   0.00000  )

     Band symmetry, C_2v (mm2)  point group:

     e(  1 -  1) =    -20.76977  eV     1   --> A_1  D_1  S_1  
     e(  2 -  2) =     -8.22731  eV     1   --> B_2  D_4  S_4  
     e(  3 -  3) =     -6.25981  eV     1   --> A_1  D_1  S_1  
     e(  4 -  4) =     -5.48105  eV     1   --> B_1  D_3  S_3  
     e(  5 -  5) =      1.83657  eV     1   --> A_1  D_1  S_1  
     e(  6 -  6) =      2.78226  eV     1   --> B_2  D_4  S_4  
     e(  7 -  7) =      3.25087  eV     1   --> A_1  D_1  S_1  
     e(  8 -  8) =      5.00887  eV     1   --> B_2  D_4  S_4  

 **************************************************************************

 **************************************************************************

                    xk=(   0.00000,   0.12830,   0.00000  )

     Band symmetry, C_2v (mm2)  point group:

     e(  1 -  1) =    -20.90128  eV     1   --> A_1  D_1  S_1  
     e(  2 -  2) =     -8.40481  eV     1   --> B_2  D_4  S_4  
     e(  3 -  3) =     -5.78328  eV     1   --> A_1  D_1  S_1  
     e(  4 -  4) =     -5.26699  eV     1   --> B_1  D_3  S_3  
     e(  5 -  5) =      1.61494  eV     1   --> A_1  D_1  S_1  
     e(  6 -  6) =      2.57566  eV     1   --> B_2  D_4  S_4  
     e(  7 -  7) =      3.02917  eV     1   --> A_1  D_1  S_1  
     e(  8 -  8) =      4.82428  eV     1   --> B_2  D_4  S_4  

 **************************************************************************

 **************************************************************************

                    xk=(   0.00000,   0.09623,   0.00000  )

     Band symmetry, C_2v (mm2)  point group:

     e(  1 -  1) =    -21.00444  eV     1   --> A_1  D_1  S_1  
     e(  2 -  2) =     -8.54373  eV     1   --> B_2  D_4  S_4  
     e(  3 -  3) =     -5.38413  eV     1   --> A_1  D_1  S_1  
     e(  4 -  4) =     -5.08503  eV     1   --> B_1  D_3  S_3  
     e(  5 -  5) =      1.44004  eV     1   --> A_1  D_1  S_1  
     e(  6 -  6) =      2.41349  eV     1   --> B_2  D_4  S_4  
     e(  7 -  7) =      2.85593  eV     1   --> A_1  D_1  S_1  
     e(  8 -  8) =      4.67536  eV     1   --> B_2  D_4  S_4  

 **************************************************************************

 **************************************************************************

                    xk=(   0.00000,   0.06415,   0.00000  )

     Band symmetry, C_2v (mm2)  point group:

     e(  1 -  1) =    -21.07860  eV     1   --> A_1  D_1  S_1  
     e(  2 -  2) =     -8.64356  eV     1   --> B_2  D_4  S_4  
     e(  3 -  3) =     -5.08129  eV     1   --> A_1  D_1  S_1  
     e(  4 -  4) =     -4.94538  eV     1   --> B_1  D_3  S_3  
     e(  5 -  5) =      1.31327  eV     1   --> A_1  D_1  S_1  
     e(  6 -  6) =      2.29700  eV     1   --> B_2  D_4  S_4  
     e(  7 -  7) =      2.73164  eV     1   --> A_1  D_1  S_1  
     e(  8 -  8) =      4.56683  eV     1   --> B_2  D_4  S_4  

 **************************************************************************

 **************************************************************************

                    xk=(   0.00000,   0.03208,   0.00000  )

     Band symmetry, C_2v (mm2)  point group:

     e(  1 -  1) =    -21.12322  eV     1   --> A_1  D_1  S_1  
     e(  2 -  2) =     -8.70365  eV     1   --> B_2  D_4  S_4  
     e(  3 -  3) =     -4.89135  eV     1   --> A_1  D_1  S_1  
     e(  4 -  4) =     -4.85664  eV     1   --> B_1  D_3  S_3  
     e(  5 -  5) =      1.23627  eV     1   --> A_1  D_1  S_1  
     e(  6 -  6) =      2.22688  eV     1   --> B_2  D_4  S_4  
     e(  7 -  7) =      2.65680  eV     1   --> A_1  D_1  S_1  
     e(  8 -  8) =      4.50100  eV     1   --> B_2  D_4  S_4  

 **************************************************************************

 **************************************************************************

                    xk=(   0.00000,   0.00000,   0.00000  )

     point group D_3h (-62m)
     there are  6 classes
     the character table:

       E     2C3   3C2   s_h   2S3   3s_v 
A'_1   1.00  1.00  1.00  1.00  1.00  1.00
A'_2   1.00  1.00 -1.00  1.00  1.00 -1.00
E'     2.00 -1.00  0.00  2.00 -1.00  0.00
A''1   1.00  1.00  1.00 -1.00 -1.00 -1.00
A''2   1.00  1.00 -1.00 -1.00 -1.00  1.00
E''    2.00 -1.00  0.00 -2.00  1.00  0.00

     the symmetry operations in each class and the name of the first element:

     E        1
                                                                 
     2C3      3    4
                                                                 
     3C2      2    6    5
                                                                 
     s_h      7
                                                                 
     2S3      9   10
                                                                 
     3s_v     8   11   12
                                                                 

     Band symmetry, D_3h (-62m) point group:

     e(  1 -  1) =    -21.13808  eV     1   --> A'_1           
     e(  2 -  2) =     -8.72367  eV     1   --> A''2           
     e(  3 -  4) =     -4.82603  eV     2   --> E'             
     e(  5 -  5) =      1.21042  eV     1   --> A'_1           
     e(  6 -  6) =      2.20347  eV     1   --> A''2           
     e(  7 -  7) =      2.63180  eV     1   --> A'_1           
     e(  8 -  8) =      4.47896  eV     1   --> A''2           

 **************************************************************************

     BANDS        :      4.14s CPU      3.98s WALL


   This run was terminated on:  16:18:17  14Feb2024            

=------------------------------------------------------------------------------=
   JOB DONE.
=------------------------------------------------------------------------------=
