 CRYSTAL
 PRIMVEC
    2.512004220    0.000000000    0.000000000
   -1.256002110    2.175459469    0.000000000
    0.000000000    0.000000000   15.072025321
 PRIMCOORD
           2           1
B         0.000000000    0.000000000    0.000000000
N        -0.000000001    1.450306313    0.000000000
BEGIN_BLOCK_DATAGRID_3D
3D_PWSCF
BEGIN_DATAGRID_3D_UNKNOWN
          25          25         145
  0.000000  0.000000  0.000000
    2.512004    0.000000    0.000000
   -1.256002    2.175459    0.000000
    0.000000    0.000000   15.072025
  0.633527E-04  0.323268E-02  0.928821E-02  0.129910E-01  0.134648E-01  0.127356E-01
  0.121941E-01  0.119547E-01  0.117591E-01  0.115499E-01  0.113915E-01  0.112973E-01
  0.112637E-01  0.112973E-01  0.113915E-01  0.115499E-01  0.117591E-01  0.119547E-01
  0.121941E-01  0.127356E-01  0.134648E-01  0.129910E-01  0.928821E-02  0.323268E-02
  0.633527E-04  0.323268E-02  0.323268E-02  0.685300E-02  0.101342E-01  0.108089E-01
  0.990641E-02  0.893257E-02  0.832014E-02  0.790443E-02  0.757450E-02  0.735835E-02
  0.725306E-02  0.721129E-02  0.721129E-02  0.725306E-02  0.735835E-02  0.757450E-02
  0.790443E-02  0.832014E-02  0.893257E-02  0.990641E-02  0.108089E-01  0.101342E-01
  0.685300E-02  0.323268E-02  0.928821E-02  0.861231E-02  0.928821E-02  0.101342E-01
  0.965678E-02  0.818634E-02  0.679148E-02  0.587254E-02  0.526962E-02  0.482371E-02
  0.453264E-02  0.439497E-02  0.434576E-02  0.433311E-02  0.434576E-02  0.439497E-02
  0.453264E-02  0.482371E-02  0.526962E-02  0.587254E-02  0.679148E-02  0.818634E-02
  0.965678E-02  0.101342E-01  0.928821E-02  0.129910E-01  0.140815E-01  0.140815E-01
  0.129910E-01  0.108089E-01  0.818634E-02  0.600890E-02  0.458615E-02  0.370696E-02
  0.312311E-02  0.275295E-02  0.256644E-02  0.248952E-02  0.245792E-02  0.245792E-02
  0.248952E-02  0.256644E-02  0.275295E-02  0.312311E-02  0.370696E-02  0.458615E-02
  0.600890E-02  0.818634E-02  0.108089E-01  0.129910E-01  0.134648E-01  0.163617E-01
  0.174769E-01  0.163617E-01  0.134648E-01  0.990641E-02  0.679148E-02  0.458615E-02
  0.317102E-02  0.227924E-02  0.175120E-02  0.149282E-02  0.138983E-02  0.134443E-02
  0.132785E-02  0.134443E-02  0.138983E-02  0.149282E-02  0.175120E-02  0.227924E-02
  0.317102E-02  0.458615E-02  0.679148E-02  0.990641E-02  0.134648E-01  0.127356E-01
  0.164892E-01  0.188880E-01  0.188880E-01  0.164892E-01  0.127356E-01  0.893257E-02
  0.587254E-02  0.370696E-02  0.227924E-02  0.141297E-02  0.963708E-03  0.776489E-03
  0.707648E-03  0.680285E-03  0.680285E-03  0.707648E-03  0.776489E-03  0.963708E-03
  0.141297E-02  0.227924E-02  0.370696E-02  0.587254E-02  0.893257E-02  0.127356E-01
  0.121941E-01  0.163540E-01  0.197042E-01  0.210074E-01  0.197042E-01  0.163540E-01
  0.121941E-01  0.832014E-02  0.526962E-02  0.312311E-02  0.175120E-02  0.963708E-03
  0.566674E-03  0.394206E-03  0.330467E-03  0.314852E-03  0.330467E-03  0.394206E-03
  0.566674E-03  0.963708E-03  0.175120E-02  0.312311E-02  0.526962E-02  0.832014E-02
  0.121941E-01  0.119547E-01  0.165348E-01  0.207192E-01  0.232779E-01  0.232779E-01
  0.207192E-01  0.165348E-01  0.119547E-01  0.790443E-02  0.482371E-02  0.275295E-02
  0.149282E-02  0.776489E-03  0.394206E-03  0.215501E-03  0.152959E-03  0.152959E-03
  0.215501E-03  0.394206E-03  0.776489E-03  0.149282E-02  0.275295E-02  0.482371E-02
  0.790443E-02  0.119547E-01  0.117591E-01  0.167666E-01  0.218094E-01  0.256806E-01
  0.271509E-01  0.256806E-01  0.218094E-01  0.167666E-01  0.117591E-01  0.757450E-02
  0.453264E-02  0.256644E-02  0.138983E-02  0.707648E-03  0.330467E-03  0.152959E-03
  0.103884E-03  0.152959E-03  0.330467E-03  0.707648E-03  0.138983E-02  0.256644E-02
  0.453264E-02  0.757450E-02  0.117591E-01  0.115499E-01  0.168771E-01  0.228271E-01
  0.282791E-01  0.316376E-01  0.316376E-01  0.282791E-01  0.228271E-01  0.168771E-01
  0.115499E-01  0.735835E-02  0.439497E-02  0.248952E-02  0.134443E-02  0.680285E-03
  0.314852E-03  0.152959E-03  0.152959E-03  0.314852E-03  0.680285E-03  0.134443E-02
  0.248952E-02  0.439497E-02  0.735835E-02  0.115499E-01  0.113915E-01  0.169534E-01
  0.239114E-01  0.314476E-01  0.375977E-01  0.400096E-01  0.375977E-01  0.314476E-01
  0.239114E-01  0.169534E-01  0.113915E-01  0.725306E-02  0.434576E-02  0.245792E-02
  0.132785E-02  0.680285E-03  0.330467E-03  0.215501E-03  0.330467E-03  0.680285E-03
  0.132785E-02  0.245792E-02  0.434576E-02  0.725306E-02  0.113915E-01  0.112973E-01
  0.170422E-01  0.250429E-01  0.350498E-01  0.449163E-01  0.511634E-01  0.511634E-01
  0.449163E-01  0.350498E-01  0.250429E-01  0.170422E-01  0.112973E-01  0.721129E-02
  0.433311E-02  0.245792E-02  0.134443E-02  0.707648E-03  0.394206E-03  0.394206E-03
  0.707648E-03  0.134443E-02  0.245792E-02  0.433311E-02  0.721129E-02  0.112973E-01
  0.112637E-01  0.170961E-01  0.258908E-01  0.380611E-01  0.512603E-01  0.611053E-01
  0.646123E-01  0.611053E-01  0.512603E-01  0.380611E-01  0.258908E-01  0.170961E-01
  0.112637E-01  0.721129E-02  0.434576E-02  0.248952E-02  0.138983E-02  0.776489E-03
  0.566674E-03  0.776489E-03  0.138983E-02  0.248952E-02  0.434576E-02  0.721129E-02
  0.112637E-01  0.112973E-01  0.170961E-01  0.261914E-01  0.395953E-01  0.543001E-01
  0.638666E-01  0.665036E-01  0.665036E-01  0.638666E-01  0.543001E-01  0.395953E-01
  0.261914E-01  0.170961E-01  0.112973E-01  0.725306E-02  0.439497E-02  0.256644E-02
  0.149282E-02  0.963708E-03  0.963708E-03  0.149282E-02  0.256644E-02  0.439497E-02
  0.725306E-02  0.112973E-01  0.113915E-01  0.170422E-01  0.258908E-01  0.395953E-01
  0.548475E-01  0.610824E-01  0.538955E-01  0.475429E-01  0.538955E-01  0.610824E-01
  0.548475E-01  0.395953E-01  0.258908E-01  0.170422E-01  0.113915E-01  0.735835E-02
  0.453264E-02  0.275295E-02  0.175120E-02  0.141297E-02  0.175120E-02  0.275295E-02
  0.453264E-02  0.735835E-02  0.113915E-01  0.115499E-01  0.169534E-01  0.250429E-01
  0.380611E-01  0.543001E-01  0.610824E-01  0.449655E-01  0.203703E-01  0.203703E-01
  0.449655E-01  0.610824E-01  0.543001E-01  0.380611E-01  0.250429E-01  0.169534E-01
  0.115499E-01  0.757450E-02  0.482371E-02  0.312311E-02  0.227924E-02  0.227924E-02
  0.312311E-02  0.482371E-02  0.757450E-02  0.115499E-01  0.117591E-01  0.168771E-01
  0.239114E-01  0.350498E-01  0.512603E-01  0.638666E-01  0.538955E-01  0.203703E-01
  0.187770E-03  0.203703E-01  0.538955E-01  0.638666E-01  0.512603E-01  0.350498E-01
  0.239114E-01  0.168771E-01  0.117591E-01  0.790443E-02  0.526962E-02  0.370696E-02
  0.317102E-02  0.370696E-02  0.526962E-02  0.790443E-02  0.117591E-01  0.119547E-01
  0.167666E-01  0.228271E-01  0.314476E-01  0.449163E-01  0.611053E-01  0.665036E-01
  0.475429E-01  0.203703E-01  0.203703E-01  0.475429E-01  0.665036E-01  0.611053E-01
  0.449163E-01  0.314476E-01  0.228271E-01  0.167666E-01  0.119547E-01  0.832014E-02
  0.587254E-02  0.458615E-02  0.458615E-02  0.587254E-02  0.832014E-02  0.119547E-01
  0.121941E-01  0.165348E-01  0.218094E-01  0.282791E-01  0.375977E-01  0.511634E-01
  0.646123E-01  0.665036E-01  0.538955E-01  0.449655E-01  0.538955E-01  0.665036E-01
  0.646123E-01  0.511634E-01  0.375977E-01  0.282791E-01  0.218094E-01  0.165348E-01
  0.121941E-01  0.893257E-02  0.679148E-02  0.600890E-02  0.679148E-02  0.893257E-02
  0.121941E-01  0.127356E-01  0.163540E-01  0.207192E-01  0.256806E-01  0.316376E-01
  0.400096E-01  0.511634E-01  0.611053E-01  0.638666E-01  0.610824E-01  0.610824E-01
  0.638666E-01  0.611053E-01  0.511634E-01  0.400096E-01  0.316376E-01  0.256806E-01
  0.207192E-01  0.163540E-01  0.127356E-01  0.990641E-02  0.818634E-02  0.818634E-02
  0.990641E-02  0.127356E-01  0.134648E-01  0.164892E-01  0.197042E-01  0.232779E-01
  0.271509E-01  0.316376E-01  0.375977E-01  0.449163E-01  0.512603E-01  0.543001E-01
  0.548475E-01  0.543001E-01  0.512603E-01  0.449163E-01  0.375977E-01  0.316376E-01
  0.271509E-01  0.232779E-01  0.197042E-01  0.164892E-01  0.134648E-01  0.108089E-01
  0.965678E-02  0.108089E-01  0.134648E-01  0.129910E-01  0.163617E-01  0.188880E-01
  0.210074E-01  0.232779E-01  0.256806E-01  0.282791E-01  0.314476E-01  0.350498E-01
  0.380611E-01  0.395953E-01  0.395953E-01  0.380611E-01  0.350498E-01  0.314476E-01
  0.282791E-01  0.256806E-01  0.232779E-01  0.210074E-01  0.188880E-01  0.163617E-01
  0.129910E-01  0.101342E-01  0.101342E-01  0.129910E-01  0.928821E-02  0.140815E-01
  0.174769E-01  0.188880E-01  0.197042E-01  0.207192E-01  0.218094E-01  0.228271E-01
  0.239114E-01  0.250429E-01  0.258908E-01  0.261914E-01  0.258908E-01  0.250429E-01
  0.239114E-01  0.228271E-01  0.218094E-01  0.207192E-01  0.197042E-01  0.188880E-01
  0.174769E-01  0.140815E-01  0.928821E-02  0.685300E-02  0.928821E-02  0.323268E-02
  0.861231E-02  0.140815E-01  0.163617E-01  0.164892E-01  0.163540E-01  0.165348E-01
  0.167666E-01  0.168771E-01  0.169534E-01  0.170422E-01  0.170961E-01  0.170961E-01
  0.170422E-01  0.169534E-01  0.168771E-01  0.167666E-01  0.165348E-01  0.163540E-01
  0.164892E-01  0.163617E-01  0.140815E-01  0.861231E-02  0.323268E-02  0.323268E-02
  0.633527E-04  0.323268E-02  0.928821E-02  0.129910E-01  0.134648E-01  0.127356E-01
  0.121941E-01  0.119547E-01  0.117591E-01  0.115499E-01  0.113915E-01  0.112973E-01
  0.112637E-01  0.112973E-01  0.113915E-01  0.115499E-01  0.117591E-01  0.119547E-01
  0.121941E-01  0.127356E-01  0.134648E-01  0.129910E-01  0.928821E-02  0.323268E-02
  0.633527E-04  0.551172E-02  0.777928E-02  0.119649E-01  0.141892E-01  0.140001E-01
  0.130972E-01  0.125454E-01  0.123509E-01  0.122513E-01  0.121808E-01  0.121671E-01
  0.121811E-01  0.121874E-01  0.121811E-01  0.121671E-01  0.121808E-01  0.122513E-01
  0.123509E-01  0.125454E-01  0.130972E-01  0.140001E-01  0.141892E-01  0.119649E-01
  0.777928E-02  0.551172E-02  0.777928E-02  0.777928E-02  0.100900E-01  0.118591E-01
  0.116262E-01  0.103800E-01  0.930698E-02  0.866470E-02  0.825404E-02  0.796528E-02
  0.781167E-02  0.776480E-02  0.775723E-02  0.775723E-02  0.776480E-02  0.781167E-02
  0.796528E-02  0.825404E-02  0.866470E-02  0.930698E-02  0.103800E-01  0.116262E-01
  0.118591E-01  0.100900E-01  0.777928E-02  0.119649E-01  0.117459E-01  0.119649E-01
  0.118591E-01  0.106108E-01  0.875702E-02  0.720998E-02  0.621888E-02  0.557439E-02
  0.511453E-02  0.483246E-02  0.471343E-02  0.468029E-02  0.467383E-02  0.468029E-02
  0.471343E-02  0.483246E-02  0.511453E-02  0.557439E-02  0.621888E-02  0.720998E-02
  0.875702E-02  0.106108E-01  0.118591E-01  0.119649E-01  0.141892E-01  0.156087E-01
  0.156087E-01  0.141892E-01  0.116262E-01  0.875702E-02  0.644801E-02  0.494103E-02
  0.399902E-02  0.337421E-02  0.298392E-02  0.279052E-02  0.271289E-02  0.268230E-02
  0.268230E-02  0.271289E-02  0.279052E-02  0.298392E-02  0.337421E-02  0.399902E-02
  0.494103E-02  0.644801E-02  0.875702E-02  0.116262E-01  0.141892E-01  0.140001E-01
  0.169687E-01  0.181199E-01  0.169687E-01  0.140001E-01  0.103800E-01  0.720998E-02
  0.494103E-02  0.345987E-02  0.251430E-02  0.195016E-02  0.166932E-02  0.155290E-02
  0.150080E-02  0.148233E-02  0.150080E-02  0.155290E-02  0.166932E-02  0.195016E-02
  0.251430E-02  0.345987E-02  0.494103E-02  0.720998E-02  0.103800E-01  0.140001E-01
  0.130972E-01  0.168104E-01  0.191759E-01  0.191759E-01  0.168104E-01  0.130972E-01
  0.930698E-02  0.621888E-02  0.399902E-02  0.251430E-02  0.160190E-02  0.111887E-02
  0.907915E-03  0.824150E-03  0.789858E-03  0.789858E-03  0.824150E-03  0.907915E-03
  0.111887E-02  0.160190E-02  0.251430E-02  0.399902E-02  0.621888E-02  0.930698E-02
  0.130972E-01  0.125454E-01  0.166732E-01  0.199758E-01  0.212563E-01  0.199758E-01
  0.166732E-01  0.125454E-01  0.866470E-02  0.557439E-02  0.337421E-02  0.195016E-02
  0.111887E-02  0.688166E-03  0.492340E-03  0.415131E-03  0.395178E-03  0.415131E-03
  0.492340E-03  0.688166E-03  0.111887E-02  0.195016E-02  0.337421E-02  0.557439E-02
  0.866470E-02  0.125454E-01  0.123509E-01  0.169522E-01  0.211307E-01  0.236748E-01
  0.236748E-01  0.211307E-01  0.169522E-01  0.123509E-01  0.825404E-02  0.511453E-02
  0.298392E-02  0.166932E-02  0.907915E-03  0.492340E-03  0.292427E-03  0.219735E-03
  0.219735E-03  0.292427E-03  0.492340E-03  0.907915E-03  0.166932E-02  0.298392E-02
  0.511453E-02  0.825404E-02  0.123509E-01  0.122513E-01  0.173551E-01  0.224684E-01
  0.263755E-01  0.278554E-01  0.263755E-01  0.224684E-01  0.173551E-01  0.122513E-01
  0.796528E-02  0.483246E-02  0.279052E-02  0.155290E-02  0.824150E-03  0.415131E-03
  0.219735E-03  0.164989E-03  0.219735E-03  0.415131E-03  0.824150E-03  0.155290E-02
  0.279052E-02  0.483246E-02  0.796528E-02  0.122513E-01  0.121808E-01  0.177106E-01
  0.238539E-01  0.294554E-01  0.328948E-01  0.328948E-01  0.294554E-01  0.238539E-01
  0.177106E-01  0.121808E-01  0.781167E-02  0.471343E-02  0.271289E-02  0.150080E-02
  0.789858E-03  0.395178E-03  0.219735E-03  0.219735E-03  0.395178E-03  0.789858E-03
  0.150080E-02  0.271289E-02  0.471343E-02  0.781167E-02  0.121808E-01  0.121671E-01
  0.180743E-01  0.254370E-01  0.333993E-01  0.399064E-01  0.424630E-01  0.399064E-01
  0.333993E-01  0.254370E-01  0.180743E-01  0.121671E-01  0.776480E-02  0.468029E-02
  0.268230E-02  0.148233E-02  0.789858E-03  0.415131E-03  0.292427E-03  0.415131E-03
  0.789858E-03  0.148233E-02  0.268230E-02  0.468029E-02  0.776480E-02  0.121671E-01
  0.121811E-01  0.184301E-01  0.271606E-01  0.382057E-01  0.493219E-01  0.565084E-01
  0.565084E-01  0.493219E-01  0.382057E-01  0.271606E-01  0.184301E-01  0.121811E-01
  0.775723E-02  0.467383E-02  0.268230E-02  0.150080E-02  0.824150E-03  0.492340E-03
  0.492340E-03  0.824150E-03  0.150080E-02  0.268230E-02  0.467383E-02  0.775723E-02
  0.121811E-01  0.121874E-01  0.186498E-01  0.285404E-01  0.427272E-01  0.591908E-01
  0.726515E-01  0.778214E-01  0.726515E-01  0.591908E-01  0.427272E-01  0.285404E-01
  0.186498E-01  0.121874E-01  0.775723E-02  0.468029E-02  0.271289E-02  0.155290E-02
  0.907915E-03  0.688166E-03  0.907915E-03  0.155290E-02  0.271289E-02  0.468029E-02
  0.775723E-02  0.121874E-01  0.121811E-01  0.186498E-01  0.290629E-01  0.454116E-01
  0.661822E-01  0.847786E-01  0.948827E-01  0.948827E-01  0.847786E-01  0.661822E-01
  0.454116E-01  0.290629E-01  0.186498E-01  0.121811E-01  0.776480E-02  0.471343E-02
  0.279052E-02  0.166932E-02  0.111887E-02  0.111887E-02  0.166932E-02  0.279052E-02
  0.471343E-02  0.776480E-02  0.121811E-01  0.121671E-01  0.184301E-01  0.285404E-01
  0.454116E-01  0.685528E-01  0.897764E-01  0.100350E+00  0.102356E+00  0.100350E+00
  0.897764E-01  0.685528E-01  0.454116E-01  0.285404E-01  0.184301E-01  0.121671E-01
  0.781167E-02  0.483246E-02  0.298392E-02  0.195016E-02  0.160190E-02  0.195016E-02
  0.298392E-02  0.483246E-02  0.781167E-02  0.121671E-01  0.121808E-01  0.180743E-01
  0.271606E-01  0.427272E-01  0.661822E-01  0.897764E-01  0.999435E-01  0.974421E-01
  0.974421E-01  0.999435E-01  0.897764E-01  0.661822E-01  0.427272E-01  0.271606E-01
  0.180743E-01  0.121808E-01  0.796528E-02  0.511453E-02  0.337421E-02  0.251430E-02
  0.251430E-02  0.337421E-02  0.511453E-02  0.796528E-02  0.121808E-01  0.122513E-01
  0.177106E-01  0.254370E-01  0.382057E-01  0.591908E-01  0.847786E-01  0.100350E+00
  0.974421E-01  0.917139E-01  0.974421E-01  0.100350E+00  0.847786E-01  0.591908E-01
  0.382057E-01  0.254370E-01  0.177106E-01  0.122513E-01  0.825404E-02  0.557439E-02
  0.399902E-02  0.345987E-02  0.399902E-02  0.557439E-02  0.825404E-02  0.122513E-01
  0.123509E-01  0.173551E-01  0.238539E-01  0.333993E-01  0.493219E-01  0.726515E-01
  0.948827E-01  0.102356E+00  0.974421E-01  0.974421E-01  0.102356E+00  0.948827E-01
  0.726515E-01  0.493219E-01  0.333993E-01  0.238539E-01  0.173551E-01  0.123509E-01
  0.866470E-02  0.621888E-02  0.494103E-02  0.494103E-02  0.621888E-02  0.866470E-02
  0.123509E-01  0.125454E-01  0.169522E-01  0.224684E-01  0.294554E-01  0.399064E-01
  0.565084E-01  0.778214E-01  0.948827E-01  0.100350E+00  0.999435E-01  0.100350E+00
  0.948827E-01  0.778214E-01  0.565084E-01  0.399064E-01  0.294554E-01  0.224684E-01
  0.169522E-01  0.125454E-01  0.930698E-02  0.720998E-02  0.644801E-02  0.720998E-02
  0.930698E-02  0.125454E-01  0.130972E-01  0.166732E-01  0.211307E-01  0.263755E-01
  0.328948E-01  0.424630E-01  0.565084E-01  0.726515E-01  0.847786E-01  0.897764E-01
  0.897764E-01  0.847786E-01  0.726515E-01  0.565084E-01  0.424630E-01  0.328948E-01
  0.263755E-01  0.211307E-01  0.166732E-01  0.130972E-01  0.103800E-01  0.875702E-02
  0.875702E-02  0.103800E-01  0.130972E-01  0.140001E-01  0.168104E-01  0.199758E-01
  0.236748E-01  0.278554E-01  0.328948E-01  0.399064E-01  0.493219E-01  0.591908E-01
  0.661822E-01  0.685528E-01  0.661822E-01  0.591908E-01  0.493219E-01  0.399064E-01
  0.328948E-01  0.278554E-01  0.236748E-01  0.199758E-01  0.168104E-01  0.140001E-01
  0.116262E-01  0.106108E-01  0.116262E-01  0.140001E-01  0.141892E-01  0.169687E-01
  0.191759E-01  0.212563E-01  0.236748E-01  0.263755E-01  0.294554E-01  0.333993E-01
  0.382057E-01  0.427272E-01  0.454116E-01  0.454116E-01  0.427272E-01  0.382057E-01
  0.333993E-01  0.294554E-01  0.263755E-01  0.236748E-01  0.212563E-01  0.191759E-01
  0.169687E-01  0.141892E-01  0.118591E-01  0.118591E-01  0.141892E-01  0.119649E-01
  0.156087E-01  0.181199E-01  0.191759E-01  0.199758E-01  0.211307E-01  0.224684E-01
  0.238539E-01  0.254370E-01  0.271606E-01  0.285404E-01  0.290629E-01  0.285404E-01
  0.271606E-01  0.254370E-01  0.238539E-01  0.224684E-01  0.211307E-01  0.199758E-01
  0.191759E-01  0.181199E-01  0.156087E-01  0.119649E-01  0.100900E-01  0.119649E-01
  0.777928E-02  0.117459E-01  0.156087E-01  0.169687E-01  0.168104E-01  0.166732E-01
  0.169522E-01  0.173551E-01  0.177106E-01  0.180743E-01  0.184301E-01  0.186498E-01
  0.186498E-01  0.184301E-01  0.180743E-01  0.177106E-01  0.173551E-01  0.169522E-01
  0.166732E-01  0.168104E-01  0.169687E-01  0.156087E-01  0.117459E-01  0.777928E-02
  0.777928E-02  0.551172E-02  0.777928E-02  0.119649E-01  0.141892E-01  0.140001E-01
  0.130972E-01  0.125454E-01  0.123509E-01  0.122513E-01  0.121808E-01  0.121671E-01
  0.121811E-01  0.121874E-01  0.121811E-01  0.121671E-01  0.121808E-01  0.122513E-01
  0.123509E-01  0.125454E-01  0.130972E-01  0.140001E-01  0.141892E-01  0.119649E-01
  0.777928E-02  0.551172E-02  0.155650E-01  0.161260E-01  0.168123E-01  0.163477E-01
  0.150322E-01  0.138867E-01  0.133539E-01  0.132724E-01  0.134072E-01  0.136750E-01
  0.140090E-01  0.142779E-01  0.143773E-01  0.142779E-01  0.140090E-01  0.136750E-01
  0.134072E-01  0.132724E-01  0.133539E-01  0.138867E-01  0.150322E-01  0.163477E-01
  0.168123E-01  0.161260E-01  0.155650E-01  0.161260E-01  0.161260E-01  0.160132E-01
  0.150347E-01  0.132165E-01  0.114146E-01  0.101921E-01  0.949850E-02  0.910478E-02
  0.891942E-02  0.891947E-02  0.901390E-02  0.908822E-02  0.908822E-02  0.901390E-02
  0.891947E-02  0.891942E-02  0.910478E-02  0.949850E-02  0.101921E-01  0.114146E-01
  0.132165E-01  0.150347E-01  0.160132E-01  0.161260E-01  0.168123E-01  0.174075E-01
  0.168123E-01  0.150347E-01  0.124747E-01  0.999863E-02  0.820371E-02  0.707339E-02
  0.633746E-02  0.584850E-02  0.559107E-02  0.551753E-02  0.552250E-02  0.553059E-02
  0.552250E-02  0.551753E-02  0.559107E-02  0.584850E-02  0.633746E-02  0.707339E-02
  0.820371E-02  0.999863E-02  0.124747E-01  0.150347E-01  0.168123E-01  0.163477E-01
  0.182801E-01  0.182801E-01  0.163477E-01  0.132165E-01  0.999863E-02  0.749023E-02
  0.582095E-02  0.473835E-02  0.401906E-02  0.358290E-02  0.337347E-02  0.329347E-02
  0.326476E-02  0.326476E-02  0.329347E-02  0.337347E-02  0.358290E-02  0.401906E-02
  0.473835E-02  0.582095E-02  0.749023E-02  0.999863E-02  0.132165E-01  0.163477E-01
  0.150322E-01  0.180125E-01  0.191784E-01  0.180125E-01  0.150322E-01  0.114146E-01
  0.820371E-02  0.582095E-02  0.419285E-02  0.312116E-02  0.247123E-02  0.213560E-02
  0.198509E-02  0.191550E-02  0.189208E-02  0.191550E-02  0.198509E-02  0.213560E-02
  0.247123E-02  0.312116E-02  0.419285E-02  0.582095E-02  0.820371E-02  0.114146E-01
  0.150322E-01  0.138867E-01  0.174233E-01  0.196508E-01  0.196508E-01  0.174233E-01
  0.138867E-01  0.101921E-01  0.707339E-02  0.473835E-02  0.312116E-02  0.209792E-02
  0.153126E-02  0.125962E-02  0.113683E-02  0.108425E-02  0.108425E-02  0.113683E-02
  0.125962E-02  0.153126E-02  0.209792E-02  0.312116E-02  0.473835E-02  0.707339E-02
  0.101921E-01  0.138867E-01  0.133539E-01  0.173522E-01  0.204940E-01  0.217011E-01
  0.204940E-01  0.173522E-01  0.133539E-01  0.949850E-02  0.633746E-02  0.401906E-02
  0.247123E-02  0.153126E-02  0.101447E-02  0.757708E-03  0.644943E-03  0.613482E-03
  0.644943E-03  0.757708E-03  0.101447E-02  0.153126E-02  0.247123E-02  0.401906E-02
  0.633746E-02  0.949850E-02  0.133539E-01  0.132724E-01  0.178725E-01  0.219859E-01
  0.244632E-01  0.244632E-01  0.219859E-01  0.178725E-01  0.132724E-01  0.910478E-02
  0.584850E-02  0.358290E-02  0.213560E-02  0.125962E-02  0.757708E-03  0.502318E-03
  0.402962E-03  0.402962E-03  0.502318E-03  0.757708E-03  0.125962E-02  0.213560E-02
  0.358290E-02  0.584850E-02  0.910478E-02  0.132724E-01  0.134072E-01  0.186841E-01
  0.239013E-01  0.278407E-01  0.293220E-01  0.278407E-01  0.239013E-01  0.186841E-01
  0.134072E-01  0.891942E-02  0.559107E-02  0.337347E-02  0.198509E-02  0.113683E-02
  0.644943E-03  0.402962E-03  0.333475E-03  0.402962E-03  0.644943E-03  0.113683E-02
  0.198509E-02  0.337347E-02  0.559107E-02  0.891942E-02  0.134072E-01  0.136750E-01
  0.196230E-01  0.261275E-01  0.319669E-01  0.355141E-01  0.355141E-01  0.319669E-01
  0.261275E-01  0.196230E-01  0.136750E-01  0.891947E-02  0.551753E-02  0.329347E-02
  0.191550E-02  0.108425E-02  0.613482E-03  0.402962E-03  0.402962E-03  0.613482E-03
  0.108425E-02  0.191550E-02  0.329347E-02  0.551753E-02  0.891947E-02  0.136750E-01
  0.140090E-01  0.206495E-01  0.287769E-01  0.374289E-01  0.444434E-01  0.471927E-01
  0.444434E-01  0.374289E-01  0.287769E-01  0.206495E-01  0.140090E-01  0.901390E-02
  0.552250E-02  0.326476E-02  0.189208E-02  0.108425E-02  0.644943E-03  0.502318E-03
  0.644943E-03  0.108425E-02  0.189208E-02  0.326476E-02  0.552250E-02  0.901390E-02
  0.140090E-01  0.142779E-01  0.215941E-01  0.316713E-01  0.443733E-01  0.573245E-01
  0.658514E-01  0.658514E-01  0.573245E-01  0.443733E-01  0.316713E-01  0.215941E-01
  0.142779E-01  0.908822E-02  0.553059E-02  0.326476E-02  0.191550E-02  0.113683E-02
  0.757708E-03  0.757708E-03  0.113683E-02  0.191550E-02  0.326476E-02  0.553059E-02
  0.908822E-02  0.142779E-01  0.143773E-01  0.221670E-01  0.340468E-01  0.514454E-01
  0.728512E-01  0.917580E-01  0.994432E-01  0.917580E-01  0.728512E-01  0.514454E-01
  0.340468E-01  0.221670E-01  0.143773E-01  0.908822E-02  0.552250E-02  0.329347E-02
  0.198509E-02  0.125962E-02  0.101447E-02  0.125962E-02  0.198509E-02  0.329347E-02
  0.552250E-02  0.908822E-02  0.143773E-01  0.142779E-01  0.221670E-01  0.349749E-01
  0.560401E-01  0.861900E-01  0.118857E+00  0.140744E+00  0.140744E+00  0.118857E+00
  0.861900E-01  0.560401E-01  0.349749E-01  0.221670E-01  0.142779E-01  0.901390E-02
  0.551753E-02  0.337347E-02  0.213560E-02  0.153126E-02  0.153126E-02  0.213560E-02
  0.337347E-02  0.551753E-02  0.901390E-02  0.142779E-01  0.140090E-01  0.215941E-01
  0.340468E-01  0.560401E-01  0.915030E-01  0.136473E+00  0.175730E+00  0.191387E+00
  0.175730E+00  0.136473E+00  0.915030E-01  0.560401E-01  0.340468E-01  0.215941E-01
  0.140090E-01  0.891947E-02  0.559107E-02  0.358290E-02  0.247123E-02  0.209792E-02
  0.247123E-02  0.358290E-02  0.559107E-02  0.891947E-02  0.140090E-01  0.136750E-01
  0.206495E-01  0.316713E-01  0.514454E-01  0.861900E-01  0.136473E+00  0.189408E+00
  0.223471E+00  0.223471E+00  0.189408E+00  0.136473E+00  0.861900E-01  0.514454E-01
  0.316713E-01  0.206495E-01  0.136750E-01  0.891942E-02  0.584850E-02  0.401906E-02
  0.312116E-02  0.312116E-02  0.401906E-02  0.584850E-02  0.891942E-02  0.136750E-01
  0.134072E-01  0.196230E-01  0.287769E-01  0.443733E-01  0.728512E-01  0.118857E+00
  0.175730E+00  0.223471E+00  0.241935E+00  0.223471E+00  0.175730E+00  0.118857E+00
  0.728512E-01  0.443733E-01  0.287769E-01  0.196230E-01  0.134072E-01  0.910478E-02
  0.633746E-02  0.473835E-02  0.419285E-02  0.473835E-02  0.633746E-02  0.910478E-02
  0.134072E-01  0.132724E-01  0.186841E-01  0.261275E-01  0.374289E-01  0.573245E-01
  0.917580E-01  0.140744E+00  0.191387E+00  0.223471E+00  0.223471E+00  0.191387E+00
  0.140744E+00  0.917580E-01  0.573245E-01  0.374289E-01  0.261275E-01  0.186841E-01
  0.132724E-01  0.949850E-02  0.707339E-02  0.582095E-02  0.582095E-02  0.707339E-02
  0.949850E-02  0.132724E-01  0.133539E-01  0.178725E-01  0.239013E-01  0.319669E-01
  0.444434E-01  0.658514E-01  0.994432E-01  0.140744E+00  0.175730E+00  0.189408E+00
  0.175730E+00  0.140744E+00  0.994432E-01  0.658514E-01  0.444434E-01  0.319669E-01
  0.239013E-01  0.178725E-01  0.133539E-01  0.101921E-01  0.820371E-02  0.749023E-02
  0.820371E-02  0.101921E-01  0.133539E-01  0.138867E-01  0.173522E-01  0.219859E-01
  0.278407E-01  0.355141E-01  0.471927E-01  0.658514E-01  0.917580E-01  0.118857E+00
  0.136473E+00  0.136473E+00  0.118857E+00  0.917580E-01  0.658514E-01  0.471927E-01
  0.355141E-01  0.278407E-01  0.219859E-01  0.173522E-01  0.138867E-01  0.114146E-01
  0.999863E-02  0.999863E-02  0.114146E-01  0.138867E-01  0.150322E-01  0.174233E-01
  0.204940E-01  0.244632E-01  0.293220E-01  0.355141E-01  0.444434E-01  0.573245E-01
  0.728512E-01  0.861900E-01  0.915030E-01  0.861900E-01  0.728512E-01  0.573245E-01
  0.444434E-01  0.355141E-01  0.293220E-01  0.244632E-01  0.204940E-01  0.174233E-01
  0.150322E-01  0.132165E-01  0.124747E-01  0.132165E-01  0.150322E-01  0.163477E-01
  0.180125E-01  0.196508E-01  0.217011E-01  0.244632E-01  0.278407E-01  0.319669E-01
  0.374289E-01  0.443733E-01  0.514454E-01  0.560401E-01  0.560401E-01  0.514454E-01
  0.443733E-01  0.374289E-01  0.319669E-01  0.278407E-01  0.244632E-01  0.217011E-01
  0.196508E-01  0.180125E-01  0.163477E-01  0.150347E-01  0.150347E-01  0.163477E-01
  0.168123E-01  0.182801E-01  0.191784E-01  0.196508E-01  0.204940E-01  0.219859E-01
  0.239013E-01  0.261275E-01  0.287769E-01  0.316713E-01  0.340468E-01  0.349749E-01
  0.340468E-01  0.316713E-01  0.287769E-01  0.261275E-01  0.239013E-01  0.219859E-01
  0.204940E-01  0.196508E-01  0.191784E-01  0.182801E-01  0.168123E-01  0.160132E-01
  0.168123E-01  0.161260E-01  0.174075E-01  0.182801E-01  0.180125E-01  0.174233E-01
  0.173522E-01  0.178725E-01  0.186841E-01  0.196230E-01  0.206495E-01  0.215941E-01
  0.221670E-01  0.221670E-01  0.215941E-01  0.206495E-01  0.196230E-01  0.186841E-01
  0.178725E-01  0.173522E-01  0.174233E-01  0.180125E-01  0.182801E-01  0.174075E-01
  0.161260E-01  0.161260E-01  0.155650E-01  0.161260E-01  0.168123E-01  0.163477E-01
  0.150322E-01  0.138867E-01  0.133539E-01  0.132724E-01  0.134072E-01  0.136750E-01
  0.140090E-01  0.142779E-01  0.143773E-01  0.142779E-01  0.140090E-01  0.136750E-01
  0.134072E-01  0.132724E-01  0.133539E-01  0.138867E-01  0.150322E-01  0.163477E-01
  0.168123E-01  0.161260E-01  0.155650E-01  0.208692E-01  0.204101E-01  0.190941E-01
  0.172765E-01  0.155926E-01  0.145073E-01  0.140708E-01  0.141138E-01  0.144992E-01
  0.151286E-01  0.158242E-01  0.163497E-01  0.165410E-01  0.163497E-01  0.158242E-01
  0.151286E-01  0.144992E-01  0.141138E-01  0.140708E-01  0.145073E-01  0.155926E-01
  0.172765E-01  0.190941E-01  0.204101E-01  0.208692E-01  0.204101E-01  0.204101E-01
  0.189772E-01  0.166250E-01  0.141786E-01  0.122784E-01  0.110653E-01  0.103600E-01
  0.999856E-02  0.993301E-02  0.100988E-01  0.103391E-01  0.104961E-01  0.104961E-01
  0.103391E-01  0.100988E-01  0.993301E-02  0.999856E-02  0.103600E-01  0.110653E-01
  0.122784E-01  0.141786E-01  0.166250E-01  0.189772E-01  0.204101E-01  0.190941E-01
  0.200568E-01  0.190941E-01  0.166250E-01  0.136384E-01  0.110498E-01  0.921574E-02
  0.800848E-02  0.720064E-02  0.669740E-02  0.647481E-02  0.644937E-02  0.649134E-02
  0.651325E-02  0.649134E-02  0.644937E-02  0.647481E-02  0.669740E-02  0.720064E-02
  0.800848E-02  0.921574E-02  0.110498E-01  0.136384E-01  0.166250E-01  0.190941E-01
  0.172765E-01  0.192527E-01  0.192527E-01  0.172765E-01  0.141786E-01  0.110498E-01
  0.855846E-02  0.680136E-02  0.559848E-02  0.479545E-02  0.432091E-02  0.409685E-02
  0.401247E-02  0.398418E-02  0.398418E-02  0.401247E-02  0.409685E-02  0.432091E-02
  0.479545E-02  0.559848E-02  0.680136E-02  0.855846E-02  0.110498E-01  0.141786E-01
  0.172765E-01  0.155926E-01  0.182750E-01  0.193197E-01  0.182750E-01  0.155926E-01
  0.122784E-01  0.921574E-02  0.680136E-02  0.505161E-02  0.386147E-02  0.312768E-02
  0.273360E-02  0.254269E-02  0.245111E-02  0.242140E-02  0.245111E-02  0.254269E-02
  0.273360E-02  0.312768E-02  0.386147E-02  0.505161E-02  0.680136E-02  0.921574E-02
  0.122784E-01  0.155926E-01  0.145073E-01  0.176795E-01  0.196350E-01  0.196350E-01
  0.176795E-01  0.145073E-01  0.110653E-01  0.800848E-02  0.559848E-02  0.386147E-02
  0.272684E-02  0.206788E-02  0.172325E-02  0.155107E-02  0.147494E-02  0.147494E-02
  0.155107E-02  0.172325E-02  0.206788E-02  0.272684E-02  0.386147E-02  0.559848E-02
  0.800848E-02  0.110653E-01  0.145073E-01  0.140708E-01  0.177910E-01  0.206420E-01
  0.217232E-01  0.206420E-01  0.177910E-01  0.140708E-01  0.103600E-01  0.720064E-02
  0.479545E-02  0.312768E-02  0.206788E-02  0.144852E-02  0.111558E-02  0.957109E-03
  0.910667E-03  0.957109E-03  0.111558E-02  0.144852E-02  0.206788E-02  0.312768E-02
  0.479545E-02  0.720064E-02  0.103600E-01  0.140708E-01  0.141138E-01  0.185553E-01
  0.224508E-01  0.247652E-01  0.247652E-01  0.224508E-01  0.185553E-01  0.141138E-01
  0.999856E-02  0.669740E-02  0.432091E-02  0.273360E-02  0.172325E-02  0.111558E-02
  0.790798E-03  0.657633E-03  0.657633E-03  0.790798E-03  0.111558E-02  0.172325E-02
  0.273360E-02  0.432091E-02  0.669740E-02  0.999856E-02  0.141138E-01  0.144992E-01