 CRYSTAL
 PRIMVEC
    2.468331225    0.000000000    0.000000000
   -1.234165612    2.137637546    0.000000000
    0.000000000    0.000000000   19.746649800
 PRIMCOORD
           4           1
C         0.000000000    0.000000000    0.000000000
C         0.000000000    0.000000000    3.307899534
C         1.234166847    0.712545136    0.000000000
C        -0.000001234    1.425092410    3.307899534
BEGIN_BLOCK_DATAGRID_3D
3D_PWSCF
BEGIN_DATAGRID_3D_UNKNOWN
          25          25         193
  0.000000  0.000000  0.000000
    2.468331    0.000000    0.000000
   -1.234166    2.137638    0.000000
    0.000000    0.000000   19.746650
  0.540353E-07  0.284430E-06  0.741580E-06  0.103889E-05  0.106306E-05  0.942172E-06
  0.806199E-06  0.695728E-06  0.601973E-06  0.519658E-06  0.458732E-06  0.426205E-06
  0.417040E-06  0.426205E-06  0.458732E-06  0.519658E-06  0.601973E-06  0.695728E-06
  0.806199E-06  0.942172E-06  0.106306E-05  0.103889E-05  0.741580E-06  0.284430E-06
  0.540353E-07  0.284430E-06  0.284430E-06  0.655522E-06  0.103807E-05  0.117350E-05
  0.110471E-05  0.979188E-06  0.872525E-06  0.785141E-06  0.702825E-06  0.631035E-06
  0.584044E-06  0.564162E-06  0.564162E-06  0.584044E-06  0.631035E-06  0.702825E-06
  0.785141E-06  0.872525E-06  0.979188E-06  0.110471E-05  0.117350E-05  0.103807E-05
  0.655522E-06  0.284430E-06  0.741580E-06  0.588147E-06  0.741580E-06  0.103807E-05
  0.121420E-05  0.120675E-05  0.111543E-05  0.102664E-05  0.956680E-06  0.891888E-06
  0.830411E-06  0.784588E-06  0.761516E-06  0.755610E-06  0.761516E-06  0.784588E-06
  0.830411E-06  0.891888E-06  0.956680E-06  0.102664E-05  0.111543E-05  0.120675E-05
  0.121420E-05  0.103807E-05  0.741580E-06  0.103889E-05  0.898537E-06  0.898537E-06
  0.103889E-05  0.117350E-05  0.120675E-05  0.116811E-05  0.111938E-05  0.108417E-05
  0.105783E-05  0.103635E-05  0.102096E-05  0.101087E-05  0.100505E-05  0.100505E-05
  0.101087E-05  0.102096E-05  0.103635E-05  0.105783E-05  0.108417E-05  0.111938E-05
  0.116811E-05  0.120675E-05  0.117350E-05  0.103889E-05  0.106306E-05  0.997526E-06
  0.963418E-06  0.997526E-06  0.106306E-05  0.110471E-05  0.111543E-05  0.111938E-05
  0.113215E-05  0.115871E-05  0.120243E-05  0.125154E-05  0.127265E-05  0.125323E-05
  0.123535E-05  0.125323E-05  0.127265E-05  0.125154E-05  0.120243E-05  0.115871E-05
  0.113215E-05  0.111938E-05  0.111543E-05  0.110471E-05  0.106306E-05  0.942172E-06
  0.913499E-06  0.895370E-06  0.895370E-06  0.913499E-06  0.942172E-06  0.979188E-06
  0.102664E-05  0.108417E-05  0.115871E-05  0.126772E-05  0.139977E-05  0.147222E-05
  0.140370E-05  0.127645E-05  0.127645E-05  0.140370E-05  0.147222E-05  0.139977E-05
  0.126772E-05  0.115871E-05  0.108417E-05  0.102664E-05  0.979188E-06  0.942172E-06
  0.806199E-06  0.768589E-06  0.756828E-06  0.755808E-06  0.756828E-06  0.768589E-06
  0.806199E-06  0.872525E-06  0.956680E-06  0.105783E-05  0.120243E-05  0.139977E-05
  0.154604E-05  0.144269E-05  0.109492E-05  0.887604E-06  0.109492E-05  0.144269E-05
  0.154604E-05  0.139977E-05  0.120243E-05  0.105783E-05  0.956680E-06  0.872525E-06
  0.806199E-06  0.695728E-06  0.634697E-06  0.610577E-06  0.609069E-06  0.609069E-06
  0.610577E-06  0.634697E-06  0.695728E-06  0.785141E-06  0.891888E-06  0.103635E-05
  0.125154E-05  0.147222E-05  0.144269E-05  0.965260E-06  0.396053E-06  0.396053E-06
  0.965260E-06  0.144269E-05  0.147222E-05  0.125154E-05  0.103635E-05  0.891888E-06
  0.785141E-06  0.695728E-06  0.601973E-06  0.523834E-06  0.481401E-06  0.471381E-06
  0.472348E-06  0.471381E-06  0.481401E-06  0.523834E-06  0.601973E-06  0.702825E-06
  0.830411E-06  0.102096E-05  0.127265E-05  0.140370E-05  0.109492E-05  0.396053E-06
  0.245919E-08  0.396053E-06  0.109492E-05  0.140370E-05  0.127265E-05  0.102096E-05
  0.830411E-06  0.702825E-06  0.601973E-06  0.519658E-06  0.431736E-06  0.374212E-06
  0.351084E-06  0.348512E-06  0.348512E-06  0.351084E-06  0.374212E-06  0.431736E-06
  0.519658E-06  0.631035E-06  0.784588E-06  0.101087E-05  0.125323E-05  0.127645E-05
  0.887604E-06  0.396053E-06  0.396053E-06  0.887604E-06  0.127645E-05  0.125323E-05
  0.101087E-05  0.784588E-06  0.631035E-06  0.519658E-06  0.458732E-06  0.362491E-06
  0.294001E-06  0.257525E-06  0.246275E-06  0.245216E-06  0.246275E-06  0.257525E-06
  0.294001E-06  0.362491E-06  0.458732E-06  0.584044E-06  0.761516E-06  0.100505E-05
  0.123535E-05  0.127645E-05  0.109492E-05  0.965260E-06  0.109492E-05  0.127645E-05
  0.123535E-05  0.100505E-05  0.761516E-06  0.584044E-06  0.458732E-06  0.426205E-06
  0.321779E-06  0.245034E-06  0.197331E-06  0.174829E-06  0.167861E-06  0.167861E-06
  0.174829E-06  0.197331E-06  0.245034E-06  0.321779E-06  0.426205E-06  0.564162E-06
  0.755610E-06  0.100505E-05  0.125323E-05  0.140370E-05  0.144269E-05  0.144269E-05
  0.140370E-05  0.125323E-05  0.100505E-05  0.755610E-06  0.564162E-06  0.426205E-06
  0.417040E-06  0.305700E-06  0.223292E-06  0.167815E-06  0.134951E-06  0.118593E-06
  0.113782E-06  0.118593E-06  0.134951E-06  0.167815E-06  0.223292E-06  0.305700E-06
  0.417040E-06  0.564162E-06  0.761516E-06  0.101087E-05  0.127265E-05  0.147222E-05
  0.154604E-05  0.147222E-05  0.127265E-05  0.101087E-05  0.761516E-06  0.564162E-06
  0.417040E-06  0.426205E-06  0.305700E-06  0.218058E-06  0.158214E-06  0.118571E-06
  0.931417E-07  0.802174E-07  0.802174E-07  0.931417E-07  0.118571E-06  0.158214E-06
  0.218058E-06  0.305700E-06  0.426205E-06  0.584044E-06  0.784588E-06  0.102096E-05
  0.125154E-05  0.139977E-05  0.139977E-05  0.125154E-05  0.102096E-05  0.784588E-06
  0.584044E-06  0.426205E-06  0.458732E-06  0.321779E-06  0.223292E-06  0.158214E-06
  0.114826E-06  0.835971E-07  0.628441E-07  0.553967E-07  0.628441E-07  0.835971E-07
  0.114826E-06  0.158214E-06  0.223292E-06  0.321779E-06  0.458732E-06  0.631035E-06
  0.830411E-06  0.103635E-05  0.120243E-05  0.126772E-05  0.120243E-05  0.103635E-05
  0.830411E-06  0.631035E-06  0.458732E-06  0.519658E-06  0.362491E-06  0.245034E-06
  0.167815E-06  0.118571E-06  0.835971E-07  0.576494E-07  0.431974E-07  0.431974E-07
  0.576494E-07  0.835971E-07  0.118571E-06  0.167815E-06  0.245034E-06  0.362491E-06
  0.519658E-06  0.702825E-06  0.891888E-06  0.105783E-05  0.115871E-05  0.115871E-05
  0.105783E-05  0.891888E-06  0.702825E-06  0.519658E-06  0.601973E-06  0.431736E-06
  0.294001E-06  0.197331E-06  0.134951E-06  0.931417E-07  0.628441E-07  0.431974E-07
  0.363789E-07  0.431974E-07  0.628441E-07  0.931417E-07  0.134951E-06  0.197331E-06
  0.294001E-06  0.431736E-06  0.601973E-06  0.785141E-06  0.956680E-06  0.108417E-05
  0.113215E-05  0.108417E-05  0.956680E-06  0.785141E-06  0.601973E-06  0.695728E-06
  0.523834E-06  0.374212E-06  0.257525E-06  0.174829E-06  0.118593E-06  0.802174E-07
  0.553967E-07  0.431974E-07  0.431974E-07  0.553967E-07  0.802174E-07  0.118593E-06
  0.174829E-06  0.257525E-06  0.374212E-06  0.523834E-06  0.695728E-06  0.872525E-06
  0.102664E-05  0.111938E-05  0.111938E-05  0.102664E-05  0.872525E-06  0.695728E-06
  0.806199E-06  0.634697E-06  0.481401E-06  0.351084E-06  0.246275E-06  0.167861E-06
  0.113782E-06  0.802174E-07  0.628441E-07  0.576494E-07  0.628441E-07  0.802174E-07
  0.113782E-06  0.167861E-06  0.246275E-06  0.351084E-06  0.481401E-06  0.634697E-06
  0.806199E-06  0.979188E-06  0.111543E-05  0.116811E-05  0.111543E-05  0.979188E-06
  0.806199E-06  0.942172E-06  0.768589E-06  0.610577E-06  0.471381E-06  0.348512E-06
  0.245216E-06  0.167861E-06  0.118593E-06  0.931417E-07  0.835971E-07  0.835971E-07
  0.931417E-07  0.118593E-06  0.167861E-06  0.245216E-06  0.348512E-06  0.471381E-06
  0.610577E-06  0.768589E-06  0.942172E-06  0.110471E-05  0.120675E-05  0.120675E-05
  0.110471E-05  0.942172E-06  0.106306E-05  0.913499E-06  0.756828E-06  0.609069E-06
  0.472348E-06  0.348512E-06  0.246275E-06  0.174829E-06  0.134951E-06  0.118571E-06
  0.114826E-06  0.118571E-06  0.134951E-06  0.174829E-06  0.246275E-06  0.348512E-06
  0.472348E-06  0.609069E-06  0.756828E-06  0.913499E-06  0.106306E-05  0.117350E-05
  0.121420E-05  0.117350E-05  0.106306E-05  0.103889E-05  0.997526E-06  0.895370E-06
  0.755808E-06  0.609069E-06  0.471381E-06  0.351084E-06  0.257525E-06  0.197331E-06
  0.167815E-06  0.158214E-06  0.158214E-06  0.167815E-06  0.197331E-06  0.257525E-06
  0.351084E-06  0.471381E-06  0.609069E-06  0.755808E-06  0.895370E-06  0.997526E-06
  0.103889E-05  0.103807E-05  0.103807E-05  0.103889E-05  0.741580E-06  0.898537E-06
  0.963418E-06  0.895370E-06  0.756828E-06  0.610577E-06  0.481401E-06  0.374212E-06
  0.294001E-06  0.245034E-06  0.223292E-06  0.218058E-06  0.223292E-06  0.245034E-06
  0.294001E-06  0.374212E-06  0.481401E-06  0.610577E-06  0.756828E-06  0.895370E-06
  0.963418E-06  0.898537E-06  0.741580E-06  0.655522E-06  0.741580E-06  0.284430E-06
  0.588147E-06  0.898537E-06  0.997526E-06  0.913499E-06  0.768589E-06  0.634697E-06
  0.523834E-06  0.431736E-06  0.362491E-06  0.321779E-06  0.305700E-06  0.305700E-06
  0.321779E-06  0.362491E-06  0.431736E-06  0.523834E-06  0.634697E-06  0.768589E-06
  0.913499E-06  0.997526E-06  0.898537E-06  0.588147E-06  0.284430E-06  0.284430E-06
  0.540353E-07  0.284430E-06  0.741580E-06  0.103889E-05  0.106306E-05  0.942172E-06
  0.806199E-06  0.695728E-06  0.601973E-06  0.519658E-06  0.458732E-06  0.426205E-06
  0.417040E-06  0.426205E-06  0.458732E-06  0.519658E-06  0.601973E-06  0.695728E-06
  0.806199E-06  0.942172E-06  0.106306E-05  0.103889E-05  0.741580E-06  0.284430E-06
  0.540353E-07  0.524210E-03  0.463596E-03  0.325115E-03  0.189599E-03  0.100894E-03
  0.556363E-04  0.351239E-04  0.259736E-04  0.221152E-04  0.211271E-04  0.216065E-04
  0.224135E-04  0.227720E-04  0.224135E-04  0.216065E-04  0.211271E-04  0.221152E-04
  0.259736E-04  0.351239E-04  0.556363E-04  0.100894E-03  0.189599E-03  0.325115E-03
  0.463596E-03  0.524210E-03  0.463596E-03  0.463596E-03  0.365700E-03  0.234783E-03
  0.132057E-03  0.734527E-04  0.459377E-04  0.343173E-04  0.302000E-04  0.301364E-04
  0.324147E-04  0.354216E-04  0.374896E-04  0.374896E-04  0.354216E-04  0.324147E-04
  0.301364E-04  0.302000E-04  0.343173E-04  0.459377E-04  0.734527E-04  0.132057E-03
  0.234783E-03  0.365700E-03  0.463596E-03  0.325115E-03  0.364408E-03  0.325115E-03
  0.234783E-03  0.145201E-03  0.854497E-04  0.547152E-04  0.417346E-04  0.380862E-04
  0.400080E-04  0.460044E-04  0.543540E-04  0.619137E-04  0.650036E-04  0.619137E-04
  0.543540E-04  0.460044E-04  0.400080E-04  0.380862E-04  0.417346E-04  0.547152E-04
  0.854497E-04  0.145201E-03  0.234783E-03  0.325115E-03  0.189599E-03  0.231792E-03
  0.231792E-03  0.189599E-03  0.132057E-03  0.854497E-04  0.581556E-04  0.461951E-04
  0.439784E-04  0.488714E-04  0.607991E-04  0.794479E-04  0.100651E-03  0.115425E-03
  0.115425E-03  0.100651E-03  0.794479E-04  0.607991E-04  0.488714E-04  0.439784E-04
  0.461951E-04  0.581556E-04  0.854497E-04  0.132057E-03  0.189599E-03  0.100894E-03
  0.127613E-03  0.139010E-03  0.127613E-03  0.100894E-03  0.734527E-04  0.547152E-04
  0.461951E-04  0.461801E-04  0.542447E-04  0.729817E-04  0.106197E-03  0.152324E-03
  0.196663E-03  0.215531E-03  0.196663E-03  0.152324E-03  0.106197E-03  0.729817E-04
  0.542447E-04  0.461801E-04  0.461951E-04  0.547152E-04  0.734527E-04  0.100894E-03
  0.556363E-04  0.677154E-04  0.763476E-04  0.763476E-04  0.677154E-04  0.556363E-04
  0.459377E-04  0.417346E-04  0.439784E-04  0.542447E-04  0.777945E-04  0.124370E-03
  0.201256E-03  0.295634E-03  0.364882E-03  0.364882E-03  0.295634E-03  0.201256E-03
  0.124370E-03  0.777945E-04  0.542447E-04  0.439784E-04  0.417346E-04  0.459377E-04
  0.556363E-04  0.351239E-04  0.386699E-04  0.425128E-04  0.441588E-04  0.425128E-04
  0.386699E-04  0.351239E-04  0.343173E-04  0.380862E-04  0.488714E-04  0.729817E-04
  0.124370E-03  0.221971E-03  0.368073E-03  0.515800E-03  0.580189E-03  0.515800E-03
  0.368073E-03  0.221971E-03  0.124370E-03  0.729817E-04  0.488714E-04  0.380862E-04
  0.343173E-04  0.351239E-04  0.259736E-04  0.250166E-04  0.256225E-04  0.263480E-04
  0.263480E-04  0.256225E-04  0.250166E-04  0.259736E-04  0.302000E-04  0.400080E-04
  0.607991E-04  0.106197E-03  0.201256E-03  0.368073E-03  0.581572E-03  0.741728E-03
  0.741728E-03  0.581572E-03  0.368073E-03  0.201256E-03  0.106197E-03  0.607991E-04
  0.400080E-04  0.302000E-04  0.259736E-04  0.221152E-04  0.182966E-04  0.168535E-04
  0.164938E-04  0.164522E-04  0.164938E-04  0.168535E-04  0.182966E-04  0.221152E-04
  0.301364E-04  0.460044E-04  0.794479E-04  0.152324E-03  0.295634E-03  0.515800E-03
  0.741728E-03  0.840828E-03  0.741728E-03  0.515800E-03  0.295634E-03  0.152324E-03
  0.794479E-04  0.460044E-04  0.301364E-04  0.221152E-04  0.211271E-04  0.150972E-04
  0.121118E-04  0.108098E-04  0.103365E-04  0.103365E-04  0.108098E-04  0.121118E-04
  0.150972E-04  0.211271E-04  0.324147E-04  0.543540E-04  0.100651E-03  0.196663E-03
  0.364882E-03  0.580189E-03  0.741728E-03  0.741728E-03  0.580189E-03  0.364882E-03
  0.196663E-03  0.100651E-03  0.543540E-04  0.324147E-04  0.211271E-04  0.216065E-04
  0.139046E-04  0.970666E-05  0.759501E-05  0.662925E-05  0.634553E-05  0.662925E-05
  0.759501E-05  0.970666E-05  0.139046E-04  0.216065E-04  0.354216E-04  0.619137E-04
  0.115425E-03  0.215531E-03  0.364882E-03  0.515800E-03  0.581572E-03  0.515800E-03
  0.364882E-03  0.215531E-03  0.115425E-03  0.619137E-04  0.354216E-04  0.216065E-04
  0.224135E-04  0.136893E-04  0.865375E-05  0.591800E-05  0.452088E-05  0.391486E-05
  0.391486E-05  0.452088E-05  0.591800E-05  0.865375E-05  0.136893E-04  0.224135E-04
  0.374896E-04  0.650036E-04  0.115425E-03  0.196663E-03  0.295634E-03  0.368073E-03
  0.368073E-03  0.295634E-03  0.196663E-03  0.115425E-03  0.650036E-04  0.374896E-04
  0.224135E-04  0.227720E-04  0.137451E-04  0.826135E-05  0.511032E-05  0.339351E-05
  0.252126E-05  0.224649E-05  0.252126E-05  0.339351E-05  0.511032E-05  0.826135E-05
  0.137451E-04  0.227720E-04  0.374896E-04  0.619137E-04  0.100651E-03  0.152324E-03
  0.201256E-03  0.221971E-03  0.201256E-03  0.152324E-03  0.100651E-03  0.619137E-04
  0.374896E-04  0.227720E-04  0.224135E-04  0.137451E-04  0.816348E-05  0.477759E-05
  0.283359E-05  0.176486E-05  0.127570E-05  0.127570E-05  0.176486E-05  0.283359E-05
  0.477759E-05  0.816348E-05  0.137451E-04  0.224135E-04  0.354216E-04  0.543540E-04
  0.794479E-04  0.106197E-03  0.124370E-03  0.124370E-03  0.106197E-03  0.794479E-04
  0.543540E-04  0.354216E-04  0.224135E-04  0.216065E-04  0.136893E-04  0.826135E-05
  0.477759E-05  0.265980E-05  0.142514E-05  0.773026E-06  0.567375E-06  0.773026E-06
  0.142514E-05  0.265980E-05  0.477759E-05  0.826135E-05  0.136893E-04  0.216065E-04
  0.324147E-04  0.460044E-04  0.607991E-04  0.729817E-04  0.777945E-04  0.729817E-04
  0.607991E-04  0.460044E-04  0.324147E-04  0.216065E-04  0.211271E-04  0.139046E-04
  0.865375E-05  0.511032E-05  0.283359E-05  0.142514E-05  0.617769E-06  0.253723E-06
  0.253723E-06  0.617769E-06  0.142514E-05  0.283359E-05  0.511032E-05  0.865375E-05
  0.139046E-04  0.211271E-04  0.301364E-04  0.400080E-04  0.488714E-04  0.542447E-04
  0.542447E-04  0.488714E-04  0.400080E-04  0.301364E-04  0.211271E-04  0.221152E-04
  0.150972E-04  0.970666E-05  0.591800E-05  0.339351E-05  0.176486E-05  0.773026E-06
  0.253723E-06  0.954234E-07  0.253723E-06  0.773026E-06  0.176486E-05  0.339351E-05
  0.591800E-05  0.970666E-05  0.150972E-04  0.221152E-04  0.302000E-04  0.380862E-04
  0.439784E-04  0.461801E-04  0.439784E-04  0.380862E-04  0.302000E-04  0.221152E-04
  0.259736E-04  0.182966E-04  0.121118E-04  0.759501E-05  0.452088E-05  0.252126E-05
  0.127570E-05  0.567375E-06  0.253723E-06  0.253723E-06  0.567375E-06  0.127570E-05
  0.252126E-05  0.452088E-05  0.759501E-05  0.121118E-04  0.182966E-04  0.259736E-04
  0.343173E-04  0.417346E-04  0.461951E-04  0.461951E-04  0.417346E-04  0.343173E-04
  0.259736E-04  0.351239E-04  0.250166E-04  0.168535E-04  0.108098E-04  0.662925E-05
  0.391486E-05  0.224649E-05  0.127570E-05  0.773026E-06  0.617769E-06  0.773026E-06
  0.127570E-05  0.224649E-05  0.391486E-05  0.662925E-05  0.108098E-04  0.168535E-04
  0.250166E-04  0.351239E-04  0.459377E-04  0.547152E-04  0.581556E-04  0.547152E-04
  0.459377E-04  0.351239E-04  0.556363E-04  0.386699E-04  0.256225E-04  0.164938E-04
  0.103365E-04  0.634553E-05  0.391486E-05  0.252126E-05  0.176486E-05  0.142514E-05
  0.142514E-05  0.176486E-05  0.252126E-05  0.391486E-05  0.634553E-05  0.103365E-04
  0.164938E-04  0.256225E-04  0.386699E-04  0.556363E-04  0.734527E-04  0.854497E-04
  0.854497E-04  0.734527E-04  0.556363E-04  0.100894E-03  0.677154E-04  0.425128E-04
  0.263480E-04  0.164522E-04  0.103365E-04  0.662925E-05  0.452088E-05  0.339351E-05
  0.283359E-05  0.265980E-05  0.283359E-05  0.339351E-05  0.452088E-05  0.662925E-05
  0.103365E-04  0.164522E-04  0.263480E-04  0.425128E-04  0.677154E-04  0.100894E-03
  0.132057E-03  0.145201E-03  0.132057E-03  0.100894E-03  0.189599E-03  0.127613E-03
  0.763476E-04  0.441588E-04  0.263480E-04  0.164938E-04  0.108098E-04  0.759501E-05
  0.591800E-05  0.511032E-05  0.477759E-05  0.477759E-05  0.511032E-05  0.591800E-05
  0.759501E-05  0.108098E-04  0.164938E-04  0.263480E-04  0.441588E-04  0.763476E-04
  0.127613E-03  0.189599E-03  0.234783E-03  0.234783E-03  0.189599E-03  0.325115E-03
  0.231792E-03  0.139010E-03  0.763476E-04  0.425128E-04  0.256225E-04  0.168535E-04
  0.121118E-04  0.970666E-05  0.865375E-05  0.826135E-05  0.816348E-05  0.826135E-05
  0.865375E-05  0.970666E-05  0.121118E-04  0.168535E-04  0.256225E-04  0.425128E-04
  0.763476E-04  0.139010E-03  0.231792E-03  0.325115E-03  0.365700E-03  0.325115E-03
  0.463596E-03  0.364408E-03  0.231792E-03  0.127613E-03  0.677154E-04  0.386699E-04
  0.250166E-04  0.182966E-04  0.150972E-04  0.139046E-04  0.136893E-04  0.137451E-04
  0.137451E-04  0.136893E-04  0.139046E-04  0.150972E-04  0.182966E-04  0.250166E-04
  0.386699E-04  0.677154E-04  0.127613E-03  0.231792E-03  0.364408E-03  0.463596E-03
  0.463596E-03  0.524210E-03  0.463596E-03  0.325115E-03  0.189599E-03  0.100894E-03
  0.556363E-04  0.351239E-04  0.259736E-04  0.221152E-04  0.211271E-04  0.216065E-04
  0.224135E-04  0.227720E-04  0.224135E-04  0.216065E-04  0.211271E-04  0.221152E-04
  0.259736E-04  0.351239E-04  0.556363E-04  0.100894E-03  0.189599E-03  0.325115E-03
  0.463596E-03  0.524210E-03  0.143489E-02  0.127530E-02  0.909134E-03  0.546929E-03
  0.304762E-03  0.176734E-03  0.115792E-03  0.873144E-04  0.751908E-04  0.724430E-04
  0.744437E-04  0.773414E-04  0.785930E-04  0.773414E-04  0.744437E-04  0.724430E-04
  0.751908E-04  0.873144E-04  0.115792E-03  0.176734E-03  0.304762E-03  0.546929E-03
  0.909134E-03  0.127530E-02  0.143489E-02  0.127530E-02  0.127530E-02  0.101690E-02
  0.668843E-03  0.391502E-03  0.228924E-03  0.149508E-03  0.114533E-03  0.102070E-03
  0.102570E-03  0.110512E-03  0.120469E-03  0.127153E-03  0.127153E-03  0.120469E-03
  0.110512E-03  0.102570E-03  0.102070E-03  0.114533E-03  0.149508E-03  0.228924E-03
  0.391502E-03  0.668843E-03  0.101690E-02  0.127530E-02  0.909134E-03  0.101314E-02
  0.909134E-03  0.668843E-03  0.427719E-03  0.263446E-03  0.176318E-03  0.138397E-03
  0.128034E-03  0.135067E-03  0.154607E-03  0.180705E-03  0.203696E-03  0.212964E-03
  0.203696E-03  0.180705E-03  0.154607E-03  0.135067E-03  0.128034E-03  0.138397E-03
  0.176318E-03  0.263446E-03  0.427719E-03  0.668843E-03  0.909134E-03  0.546929E-03
  0.659835E-03  0.659835E-03  0.546929E-03  0.391502E-03  0.263446E-03  0.186713E-03
  0.152603E-03  0.147260E-03  0.163775E-03  0.201213E-03  0.257253E-03  0.319017E-03
  0.361269E-03  0.361269E-03  0.319017E-03  0.257253E-03  0.201213E-03  0.163775E-03
  0.147260E-03  0.152603E-03  0.186713E-03  0.263446E-03  0.391502E-03  0.546929E-03
  0.304762E-03  0.377605E-03  0.408458E-03  0.377605E-03  0.304762E-03  0.228924E-03
  0.176318E-03  0.152603E-03  0.154405E-03  0.180970E-03  0.238711E-03  0.336240E-03
  0.467018E-03  0.590003E-03  0.641803E-03  0.590003E-03  0.467018E-03  0.336240E-03
  0.238711E-03  0.180970E-03  0.154405E-03  0.152603E-03  0.176318E-03  0.228924E-03
  0.304762E-03  0.176734E-03  0.210407E-03  0.234229E-03  0.234229E-03  0.210407E-03
  0.176734E-03  0.149508E-03  0.138397E-03  0.147260E-03  0.180970E-03  0.253343E-03
  0.388875E-03  0.603861E-03  0.861184E-03  0.104749E-02  0.104749E-02  0.861184E-03
  0.603861E-03  0.388875E-03  0.253343E-03  0.180970E-03  0.147260E-03  0.138397E-03
  0.149508E-03  0.176734E-03  0.115792E-03  0.125549E-03  0.136240E-03  0.140797E-03
  0.136240E-03  0.125549E-03  0.115792E-03  0.114533E-03  0.128034E-03  0.163775E-03
  0.238711E-03  0.388875E-03  0.661154E-03  0.105687E-02  0.145053E-02  0.162091E-02
  0.145053E-02  0.105687E-02  0.661154E-03  0.388875E-03  0.238711E-03  0.163775E-03
  0.128034E-03  0.114533E-03  0.115792E-03  0.873144E-04  0.834494E-04  0.846979E-04
  0.865310E-04  0.865310E-04  0.846979E-04  0.834494E-04  0.873144E-04  0.102070E-03
  0.135067E-03  0.201213E-03  0.336240E-03  0.603861E-03  0.105687E-02  0.162491E-02
  0.204683E-02  0.204683E-02  0.162491E-02  0.105687E-02  0.603861E-03  0.336240E-03
  0.201213E-03  0.135067E-03  0.102070E-03  0.873144E-04  0.751908E-04  0.619235E-04
  0.566838E-04  0.551092E-04  0.548078E-04  0.551092E-04  0.566838E-04  0.619235E-04
  0.751908E-04  0.102570E-03  0.154607E-03  0.257253E-03  0.467018E-03  0.861184E-03
  0.145053E-02  0.204683E-02  0.230689E-02  0.204683E-02  0.145053E-02  0.861184E-03
  0.467018E-03  0.257253E-03  0.154607E-03  0.102570E-03  0.751908E-04  0.724430E-04
  0.516585E-04  0.412414E-04  0.365448E-04  0.347377E-04  0.347377E-04  0.365448E-04
  0.412414E-04  0.516585E-04  0.724430E-04  0.110512E-03  0.180705E-03  0.319017E-03
  0.590003E-03  0.104749E-02  0.162091E-02  0.204683E-02  0.204683E-02  0.162091E-02
  0.104749E-02  0.590003E-03  0.319017E-03  0.180705E-03  0.110512E-03  0.724430E-04
  0.744437E-04  0.480037E-04  0.334430E-04  0.260103E-04  0.225134E-04  0.214608E-04
  0.225134E-04  0.260103E-04  0.334430E-04  0.480037E-04  0.744437E-04  0.120469E-03
  0.203696E-03  0.361269E-03  0.641803E-03  0.104749E-02  0.145053E-02  0.162491E-02
  0.145053E-02  0.104749E-02  0.641803E-03  0.361269E-03  0.203696E-03  0.120469E-03
  0.744437E-04  0.773414E-04  0.475083E-04  0.300787E-04  0.205233E-04  0.155601E-04
  0.133690E-04  0.133690E-04  0.155601E-04  0.205233E-04  0.300787E-04  0.475083E-04
  0.773414E-04  0.127153E-03  0.212964E-03  0.361269E-03  0.590003E-03  0.861184E-03
  0.105687E-02  0.105687E-02  0.861184E-03  0.590003E-03  0.361269E-03  0.212964E-03
  0.127153E-03  0.773414E-04  0.785930E-04  0.478009E-04  0.288438E-04  0.178655E-04
  0.118112E-04  0.869684E-05  0.770997E-05  0.869684E-05  0.118112E-04  0.178655E-04
  0.288438E-04  0.478009E-04  0.785930E-04  0.127153E-03  0.203696E-03  0.319017E-03
  0.467018E-03  0.603861E-03  0.661154E-03  0.603861E-03  0.467018E-03  0.319017E-03
  0.203696E-03  0.127153E-03  0.785930E-04  0.773414E-04  0.478009E-04  0.285384E-04
  0.167579E-04  0.991876E-05  0.612033E-05  0.437620E-05  0.437620E-05  0.612033E-05
  0.991876E-05  0.167579E-04  0.285384E-04  0.478009E-04  0.773414E-04  0.120469E-03
  0.180705E-03  0.257253E-03  0.336240E-03  0.388875E-03  0.388875E-03  0.336240E-03
  0.257253E-03  0.180705E-03  0.120469E-03  0.773414E-04  0.744437E-04  0.475083E-04
  0.288438E-04  0.167579E-04  0.932414E-05  0.494457E-05  0.262543E-05  0.189607E-05
  0.262543E-05  0.494457E-05  0.932414E-05  0.167579E-04  0.288438E-04  0.475083E-04
  0.744437E-04  0.110512E-03  0.154607E-03  0.201213E-03  0.238711E-03  0.253343E-03
  0.238711E-03  0.201213E-03  0.154607E-03  0.110512E-03  0.744437E-04  0.724430E-04
  0.480037E-04  0.300787E-04  0.178655E-04  0.991876E-05  0.494457E-05  0.207971E-05
  0.790824E-06  0.790824E-06  0.207971E-05  0.494457E-05  0.991876E-05  0.178655E-04
  0.300787E-04  0.480037E-04  0.724430E-04  0.102570E-03  0.135067E-03  0.163775E-03
  0.180970E-03  0.180970E-03  0.163775E-03  0.135067E-03  0.102570E-03  0.724430E-04
  0.751908E-04  0.516585E-04  0.334430E-04  0.205233E-04  0.118112E-04  0.612033E-05
  0.262543E-05  0.790824E-06  0.231847E-06  0.790824E-06  0.262543E-05  0.612033E-05
  0.118112E-04  0.205233E-04  0.334430E-04  0.516585E-04  0.751908E-04  0.102070E-03
  0.128034E-03  0.147260E-03  0.154405E-03  0.147260E-03  0.128034E-03  0.102070E-03
  0.751908E-04  0.873144E-04  0.619235E-04  0.412414E-04  0.260103E-04  0.155601E-04
  0.869684E-05  0.437620E-05  0.189607E-05  0.790824E-06  0.790824E-06  0.189607E-05
  0.437620E-05  0.869684E-05  0.155601E-04  0.260103E-04  0.412414E-04  0.619235E-04
  0.873144E-04  0.114533E-03  0.138397E-03  0.152603E-03  0.152603E-03  0.138397E-03
  0.114533E-03  0.873144E-04  0.115792E-03  0.834494E-04  0.566838E-04  0.365448E-04
  0.225134E-04  0.133690E-04  0.770997E-05  0.437620E-05  0.262543E-05  0.207971E-05
  0.262543E-05  0.437620E-05  0.770997E-05  0.133690E-04  0.225134E-04  0.365448E-04
  0.566838E-04  0.834494E-04  0.115792E-03  0.149508E-03  0.176318E-03  0.186713E-03
  0.176318E-03  0.149508E-03  0.115792E-03  0.176734E-03  0.125549E-03  0.846979E-04
  0.551092E-04  0.347377E-04  0.214608E-04  0.133690E-04  0.869684E-05  0.612033E-05
  0.494457E-05  0.494457E-05  0.612033E-05  0.869684E-05  0.133690E-04  0.214608E-04
  0.347377E-04  0.551092E-04  0.846979E-04  0.125549E-03  0.176734E-03  0.228924E-03
  0.263446E-03  0.263446E-03  0.228924E-03  0.176734E-03  0.304762E-03  0.210407E-03
  0.136240E-03  0.865310E-04  0.548078E-04  0.347377E-04  0.225134E-04  0.155601E-04
  0.118112E-04  0.991876E-05  0.932414E-05  0.991876E-05  0.118112E-04  0.155601E-04
  0.225134E-04  0.347377E-04  0.548078E-04  0.865310E-04  0.136240E-03  0.210407E-03
  0.304762E-03  0.391502E-03  0.427719E-03  0.391502E-03  0.304762E-03  0.546929E-03
  0.377605E-03  0.234229E-03  0.140797E-03  0.865310E-04  0.551092E-04  0.365448E-04
  0.260103E-04  0.205233E-04  0.178655E-04  0.167579E-04  0.167579E-04  0.178655E-04
  0.205233E-04  0.260103E-04  0.365448E-04  0.551092E-04  0.865310E-04  0.140797E-03
  0.234229E-03  0.377605E-03  0.546929E-03  0.668843E-03  0.668843E-03  0.546929E-03
  0.909134E-03  0.659835E-03  0.408458E-03  0.234229E-03  0.136240E-03  0.846979E-04
  0.566838E-04  0.412414E-04  0.334430E-04  0.300787E-04  0.288438E-04  0.285384E-04
  0.288438E-04  0.300787E-04  0.334430E-04  0.412414E-04  0.566838E-04  0.846979E-04
  0.136240E-03  0.234229E-03  0.408458E-03  0.659835E-03  0.909134E-03  0.101690E-02
  0.909134E-03  0.127530E-02  0.101314E-02  0.659835E-03  0.377605E-03  0.210407E-03
  0.125549E-03  0.834494E-04  0.619235E-04  0.516585E-04  0.480037E-04  0.475083E-04
  0.478009E-04  0.478009E-04  0.475083E-04  0.480037E-04  0.516585E-04  0.619235E-04
  0.834494E-04  0.125549E-03  0.210407E-03  0.377605E-03  0.659835E-03  0.101314E-02
  0.127530E-02  0.127530E-02  0.143489E-02  0.127530E-02  0.909134E-03  0.546929E-03
  0.304762E-03  0.176734E-03  0.115792E-03  0.873144E-04  0.751908E-04  0.724430E-04
  0.744437E-04  0.773414E-04  0.785930E-04  0.773414E-04  0.744437E-04  0.724430E-04
  0.751908E-04  0.873144E-04  0.115792E-03  0.176734E-03  0.304762E-03  0.546929E-03
  0.909134E-03  0.127530E-02  0.143489E-02  0.179521E-02  0.161428E-02  0.119396E-02
  0.766236E-03  0.465455E-03  0.293665E-03  0.203507E-03  0.157546E-03  0.137182E-03
  0.132685E-03  0.136183E-03  0.141044E-03  0.143111E-03  0.141044E-03  0.136183E-03
  0.132685E-03  0.137182E-03  0.157546E-03  0.203507E-03  0.293665E-03  0.465455E-03
  0.766236E-03  0.119396E-02  0.161428E-02  0.179521E-02  0.161428E-02  0.161428E-02
  0.131930E-02  0.913978E-03  0.578344E-03  0.369013E-03  0.257753E-03  0.204259E-03
  0.184248E-03  0.185507E-03  0.198871E-03  0.214979E-03  0.225508E-03  0.225508E-03
  0.214979E-03  0.198871E-03  0.185507E-03  0.184248E-03  0.204259E-03  0.257753E-03
  0.369013E-03  0.578344E-03  0.913978E-03  0.131930E-02  0.161428E-02  0.119396E-02
  0.131352E-02  0.119396E-02  0.913978E-03  0.624518E-03  0.417288E-03  0.299581E-03
  0.244503E-03  0.229159E-03  0.241312E-03  0.272630E-03  0.312440E-03  0.346167E-03
  0.359475E-03  0.346167E-03  0.312440E-03  0.272630E-03  0.241312E-03  0.229159E-03
  0.244503E-03  0.299581E-03  0.417288E-03  0.624518E-03  0.913978E-03  0.119396E-02
  0.766236E-03  0.899644E-03  0.899644E-03  0.766236E-03  0.578344E-03  0.417288E-03
  0.315524E-03  0.268156E-03  0.262073E-03  0.289580E-03  0.347355E-03  0.428549E-03
  0.513620E-03  0.570004E-03  0.570004E-03  0.513620E-03  0.428549E-03  0.347355E-03
  0.289580E-03  0.262073E-03  0.268156E-03  0.315524E-03  0.417288E-03  0.578344E-03
  0.766236E-03  0.465455E-03  0.555314E-03  0.592776E-03  0.555314E-03  0.465455E-03
  0.369013E-03  0.299581E-03  0.268156E-03  0.274232E-03  0.318041E-03  0.405434E-03
  0.542139E-03  0.714575E-03  0.870348E-03  0.934695E-03  0.870348E-03  0.714575E-03
  0.542139E-03  0.405434E-03  0.318041E-03  0.274232E-03  0.268156E-03  0.299581E-03
  0.369013E-03  0.465455E-03  0.293665E-03  0.337307E-03  0.367553E-03  0.367553E-03
  0.337307E-03  0.293665E-03  0.257753E-03  0.244503E-03  0.262073E-03  0.318041E-03
  0.427673E-03  0.615361E-03  0.892425E-03  0.120842E-02  0.143118E-02  0.143118E-02
  0.120842E-02  0.892425E-03  0.615361E-03  0.427673E-03  0.318041E-03  0.262073E-03
  0.244503E-03  0.257753E-03  0.293665E-03  0.203507E-03  0.215932E-03  0.229861E-03
  0.235751E-03  0.229861E-03  0.215932E-03  0.203507E-03  0.204259E-03  0.229159E-03
  0.289580E-03  0.405434E-03  0.615361E-03  0.965342E-03  0.144556E-02  0.190744E-02
  0.210435E-02  0.190744E-02  0.144556E-02  0.965342E-03  0.615361E-03  0.405434E-03
  0.289580E-03  0.229159E-03  0.204259E-03  0.203507E-03  0.157546E-03  0.149469E-03
  0.150029E-03  0.152024E-03  0.152024E-03  0.150029E-03  0.149469E-03  0.157546E-03
  0.184248E-03  0.241312E-03  0.347355E-03  0.542139E-03  0.892425E-03  0.144556E-02
  0.211030E-02  0.259337E-02  0.259337E-02  0.211030E-02  0.144556E-02  0.892425E-03