
     Program PWSCF v.7.0 starts on 14Apr2025 at  7: 9:54 

     This program is part of the open-source Quantum ESPRESSO suite
     for quantum simulation of materials; please cite
         "P. Giannozzi et al., J. Phys.:Condens. Matter 21 395502 (2009);
         "P. Giannozzi et al., J. Phys.:Condens. Matter 29 465901 (2017);
         "P. Giannozzi et al., J. Chem. Phys. 152 154105 (2020);
          URL http://www.quantum-espresso.org", 
     in publications or presentations arising from this work. More details at
     http://www.quantum-espresso.org/quote

     Parallel version (MPI & OpenMP), running on       8 processor cores
     Number of MPI processes:                 8
     Threads/MPI process:                     1

     MPI processes distributed on     1 nodes
     R & G space division:  proc/nbgrp/npool/nimage =       8
     0 MiB available memory on the printing compute node when the environment starts

     Waiting for input...
     Reading input from standard input

     Current dimensions of program PWSCF are:
     Max number of different atomic species (ntypx) = 10
     Max number of k-points (npk) =  40000
     Max angular momentum in pseudopotentials (lmaxx) =  4

     IMPORTANT: XC functional enforced from input :
     Exchange-correlation= VDW-DF2-B86R
                           (   1   4  26   0   2   0   0)
     Any further DFT definition will be discarded
     Please, verify this is what you really want


     Subspace diagonalization in iterative solution of the eigenvalue problem:
     one sub-group per band group will be used
     scalapack distributed-memory algorithm (size of sub-group:  2*  2 procs)


     Parallelization info
     --------------------
     sticks:   dense  smooth     PW     G-vecs:    dense   smooth      PW
     Min          45      45     13                 5519     5519     923
     Max          46      46     14                 5546     5546     950
     Sum         361     361    109                44285    44285    7519

     Using Slab Decomposition



     bravais-lattice index     =            4
     lattice parameter (alat)  =       4.6645  a.u.
     unit-cell volume          =     703.1169 (a.u.)^3
     number of atoms/cell      =            4
     number of atomic types    =            1
     number of electrons       =        16.00
     number of Kohn-Sham states=           12
     kinetic-energy cutoff     =      60.0000  Ry
     charge density cutoff     =     240.0000  Ry
     scf convergence threshold =      1.0E-06
     mixing beta               =       0.7000
     number of iterations used =            8  plain     mixing
     Exchange-correlation= VDW-DF2-B86R
                           (   1   4  26   0   2   0   0)

     celldm(1)=   4.664470  celldm(2)=   0.000000  celldm(3)=   8.000000
     celldm(4)=   0.000000  celldm(5)=   0.000000  celldm(6)=   0.000000

     crystal axes: (cart. coord. in units of alat)
               a(1) = (   1.000000   0.000000   0.000000 )  
               a(2) = (  -0.500000   0.866025   0.000000 )  
               a(3) = (   0.000000   0.000000   8.000000 )  

     reciprocal axes: (cart. coord. in units 2 pi/alat)
               b(1) = (  1.000000  0.577350 -0.000000 )  
               b(2) = (  0.000000  1.154701  0.000000 )  
               b(3) = (  0.000000 -0.000000  0.125000 )  


     PseudoPot. # 1 for C  read from file:
     ../../../../Pseudo/PBE/C.upf
     MD5 check sum: 34a24e64c0a39f27c6c36b90a16ac686
     Pseudo is Norm-conserving + core correction, Zval =  4.0
     Generated using ONCVPSP code by D. R. Hamann
     Using radial grid of 1248 points,  4 beta functions with: 
                l(1) =   0
                l(2) =   0
                l(3) =   1
                l(4) =   1

     atomic species   valence    mass     pseudopotential
        C              4.00    12.01100     C ( 1.00)

      6 Sym. Ops. (no inversion) found


                                    s                        frac. trans.

      isym =  1     identity                                     

 cryst.   s( 1) = (     1          0          0      )
                  (     0          1          0      )
                  (     0          0          1      )

 cart.    s( 1) = (  1.0000000  0.0000000  0.0000000 )
                  (  0.0000000  1.0000000  0.0000000 )
                  (  0.0000000  0.0000000  1.0000000 )


      isym =  2     120 deg rotation - cryst. axis [0,0,1]       

 cryst.   s( 2) = (     0          1          0      )
                  (    -1         -1          0      )
                  (     0          0          1      )

 cart.    s( 2) = ( -0.5000000 -0.8660254  0.0000000 )
                  (  0.8660254 -0.5000000  0.0000000 )
                  (  0.0000000  0.0000000  1.0000000 )


      isym =  3     120 deg rotation - cryst. axis [0,0,-1]      

 cryst.   s( 3) = (    -1         -1          0      )
                  (     1          0          0      )
                  (     0          0          1      )

 cart.    s( 3) = ( -0.5000000  0.8660254  0.0000000 )
                  ( -0.8660254 -0.5000000  0.0000000 )
                  (  0.0000000  0.0000000  1.0000000 )


      isym =  4     inv. 180 deg rotation - cart. axis [1,0,0]   

 cryst.   s( 4) = (    -1          0          0      )
                  (     1          1          0      )
                  (     0          0          1      )

 cart.    s( 4) = ( -1.0000000  0.0000000  0.0000000 )
                  (  0.0000000  1.0000000  0.0000000 )
                  (  0.0000000  0.0000000  1.0000000 )


      isym =  5     inv. 180 deg rotation - cryst. axis [0,1,0]  

 cryst.   s( 5) = (     1          1          0      )
                  (     0         -1          0      )
                  (     0          0          1      )

 cart.    s( 5) = (  0.5000000  0.8660254  0.0000000 )
                  (  0.8660254 -0.5000000  0.0000000 )
                  (  0.0000000  0.0000000  1.0000000 )


      isym =  6     inv. 180 deg rotation - cryst. axis [1,1,0]  

 cryst.   s( 6) = (     0         -1          0      )
                  (    -1          0          0      )
                  (     0          0          1      )

 cart.    s( 6) = (  0.5000000 -0.8660254  0.0000000 )
                  ( -0.8660254 -0.5000000  0.0000000 )
                  (  0.0000000  0.0000000  1.0000000 )


     point group C_3v (3m)  
     there are  3 classes
     the character table:

       E     2C3   3s_v 
A_1    1.00  1.00  1.00
A_2    1.00  1.00 -1.00
E      2.00 -1.00  0.00

     the symmetry operations in each class and the name of the first element:

     E        1
          identity                                               
     2C3      2    3
          120 deg rotation - cryst. axis [0,0,1]                 
     3s_v     4    5    6
          inv. 180 deg rotation - cart. axis [1,0,0]             

   Cartesian axes

     site n.     atom                  positions (alat units)
         1           C   tau(   1) = (   0.0000000   0.0000000   0.0000000  )
         2           C   tau(   2) = (   0.0000000   0.0000000   1.3401360  )
         3           C   tau(   3) = (   0.5000005   0.2886748   0.0000000  )
         4           C   tau(   4) = (  -0.0000005   0.5773506   1.3401360  )

   Crystallographic axes

     site n.     atom                  positions (cryst. coord.)
         1           C   tau(   1) = (  0.0000000  0.0000000  0.0000000  )
         2           C   tau(   2) = (  0.0000000  0.0000000  0.1675170  )
         3           C   tau(   3) = (  0.6666670  0.3333330  0.0000000  )
         4           C   tau(   4) = (  0.3333330  0.6666670  0.1675170  )

     number of k points=    30  Marzari-Vanderbilt smearing, width (Ry)=  0.0050
                       cart. coord. in units 2pi/alat
        k(    1) = (   0.0000000   0.0000000   0.0000000), wk =   0.0078125
        k(    2) = (   0.0000000   0.0721688   0.0000000), wk =   0.0468750
        k(    3) = (   0.0000000   0.1443376   0.0000000), wk =   0.0468750
        k(    4) = (   0.0000000   0.2165064   0.0000000), wk =   0.0468750
        k(    5) = (   0.0000000   0.2886751   0.0000000), wk =   0.0468750
        k(    6) = (   0.0000000   0.3608439   0.0000000), wk =   0.0468750
        k(    7) = (   0.0000000   0.4330127   0.0000000), wk =   0.0468750
        k(    8) = (   0.0000000   0.5051815   0.0000000), wk =   0.0468750
        k(    9) = (   0.0000000  -0.5773503   0.0000000), wk =   0.0234375
        k(   10) = (   0.0625000   0.1082532   0.0000000), wk =   0.0468750
        k(   11) = (   0.0625000   0.1804220   0.0000000), wk =   0.0937500
        k(   12) = (   0.0625000   0.2525907   0.0000000), wk =   0.0937500
        k(   13) = (   0.0625000   0.3247595   0.0000000), wk =   0.0937500
        k(   14) = (   0.0625000   0.3969283   0.0000000), wk =   0.0937500
        k(   15) = (   0.0625000   0.4690971   0.0000000), wk =   0.0937500
        k(   16) = (   0.0625000   0.5412659   0.0000000), wk =   0.0937500
        k(   17) = (   0.1250000   0.2165064   0.0000000), wk =   0.0468750
        k(   18) = (   0.1250000   0.2886751   0.0000000), wk =   0.0937500
        k(   19) = (   0.1250000   0.3608439   0.0000000), wk =   0.0937500
        k(   20) = (   0.1250000   0.4330127   0.0000000), wk =   0.0937500
        k(   21) = (   0.1250000   0.5051815   0.0000000), wk =   0.0937500
        k(   22) = (   0.1250000   0.5773503   0.0000000), wk =   0.0468750
        k(   23) = (   0.1875000   0.3247595   0.0000000), wk =   0.0468750
        k(   24) = (   0.1875000   0.3969283   0.0000000), wk =   0.0937500
        k(   25) = (   0.1875000   0.4690971   0.0000000), wk =   0.0937500
        k(   26) = (   0.1875000   0.5412659   0.0000000), wk =   0.0937500
        k(   27) = (   0.2500000   0.4330127   0.0000000), wk =   0.0468750
        k(   28) = (   0.2500000   0.5051815   0.0000000), wk =   0.0937500
        k(   29) = (   0.2500000   0.5773503   0.0000000), wk =   0.0468750
        k(   30) = (   0.3125000   0.5412659   0.0000000), wk =   0.0468750

                       cryst. coord.
        k(    1) = (   0.0000000   0.0000000   0.0000000), wk =   0.0078125
        k(    2) = (   0.0000000   0.0625000   0.0000000), wk =   0.0468750
        k(    3) = (   0.0000000   0.1250000   0.0000000), wk =   0.0468750
        k(    4) = (   0.0000000   0.1875000   0.0000000), wk =   0.0468750
        k(    5) = (   0.0000000   0.2500000   0.0000000), wk =   0.0468750
        k(    6) = (   0.0000000   0.3125000   0.0000000), wk =   0.0468750
        k(    7) = (   0.0000000   0.3750000   0.0000000), wk =   0.0468750
        k(    8) = (   0.0000000   0.4375000   0.0000000), wk =   0.0468750
        k(    9) = (   0.0000000  -0.5000000   0.0000000), wk =   0.0234375
        k(   10) = (   0.0625000   0.0625000   0.0000000), wk =   0.0468750
        k(   11) = (   0.0625000   0.1250000   0.0000000), wk =   0.0937500
        k(   12) = (   0.0625000   0.1875000   0.0000000), wk =   0.0937500
        k(   13) = (   0.0625000   0.2500000   0.0000000), wk =   0.0937500
        k(   14) = (   0.0625000   0.3125000   0.0000000), wk =   0.0937500
        k(   15) = (   0.0625000   0.3750000   0.0000000), wk =   0.0937500
        k(   16) = (   0.0625000   0.4375000   0.0000000), wk =   0.0937500
        k(   17) = (   0.1250000   0.1250000   0.0000000), wk =   0.0468750
        k(   18) = (   0.1250000   0.1875000   0.0000000), wk =   0.0937500
        k(   19) = (   0.1250000   0.2500000   0.0000000), wk =   0.0937500
        k(   20) = (   0.1250000   0.3125000   0.0000000), wk =   0.0937500
        k(   21) = (   0.1250000   0.3750000   0.0000000), wk =   0.0937500
        k(   22) = (   0.1250000   0.4375000   0.0000000), wk =   0.0468750
        k(   23) = (   0.1875000   0.1875000   0.0000000), wk =   0.0468750
        k(   24) = (   0.1875000   0.2500000   0.0000000), wk =   0.0937500
        k(   25) = (   0.1875000   0.3125000   0.0000000), wk =   0.0937500
        k(   26) = (   0.1875000   0.3750000   0.0000000), wk =   0.0937500
        k(   27) = (   0.2500000   0.2500000   0.0000000), wk =   0.0468750
        k(   28) = (   0.2500000   0.3125000   0.0000000), wk =   0.0937500
        k(   29) = (   0.2500000   0.3750000   0.0000000), wk =   0.0468750
        k(   30) = (   0.3125000   0.3125000   0.0000000), wk =   0.0468750

     Dense  grid:    44285 G-vectors     FFT dimensions: (  24,  24, 192)

     Dynamical RAM for                 wfc:       0.13 MB

     Dynamical RAM for     wfc (w. buffer):       3.91 MB

     Dynamical RAM for           str. fact:       0.08 MB

     Dynamical RAM for           local pot:       0.00 MB

     Dynamical RAM for          nlocal pot:       0.34 MB

     Dynamical RAM for                qrad:       0.36 MB

     Dynamical RAM for          rho,v,vnew:       0.57 MB

     Dynamical RAM for               rhoin:       0.19 MB

     Dynamical RAM for            rho*nmix:       1.35 MB

     Dynamical RAM for           G-vectors:       0.36 MB

     Dynamical RAM for          h,s,v(r/c):       0.01 MB

     Dynamical RAM for          <psi|beta>:       0.01 MB

     Dynamical RAM for                 psi:       0.25 MB

     Dynamical RAM for                hpsi:       0.25 MB

     Dynamical RAM for      wfcinit/wfcrot:       0.34 MB

     Estimated static dynamical RAM per process >       6.50 MB

     Estimated max dynamical RAM per process >       8.37 MB

     Estimated total dynamical RAM >      66.96 MB

     Initial potential from superposition of free atoms

     starting charge      15.9998, renormalised to      16.0000

     negative rho (up, down):  2.374E-05 0.000E+00


     %%%%%%%%%%%%%%%%%%%%%%%%%%%%%%%%%%%%%%%%%%%%%%%%%%%%%%%%%%%%%%%%%%%%%%%%
     %                                                                      %
     % You are using vdW-DF, which was implemented by the Thonhauser group. %
     % Please cite the following two papers that made this development      %
     % possible and the two reviews that describe the various versions:     %
     %                                                                      %
     %   T. Thonhauser et al., PRL 115, 136402 (2015).                      %
     %   T. Thonhauser et al., PRB 76, 125112 (2007).                       %
     %   K. Berland et al., Rep. Prog. Phys. 78, 066501 (2015).             %
     %   D.C. Langreth et al., J. Phys.: Condens. Matter 21, 084203 (2009). %
     %                                                                      %
     %                                                                      %
     % If you are calculating the stress with vdW-DF, please also cite:     %
     %                                                                      %
     %   R. Sabatini et al., J. Phys.: Condens. Matter 24, 424209 (2012).   %
     %                                                                      %
     %%%%%%%%%%%%%%%%%%%%%%%%%%%%%%%%%%%%%%%%%%%%%%%%%%%%%%%%%%%%%%%%%%%%%%%%


     Carrying out vdW-DF run using the following parameters:
     Nqs    =  20  Npoints =  1024  r_max =  100.000
     q_mesh =  0.00001000  0.04494208  0.09755937  0.15916263
               0.23128650  0.31572767  0.41458969  0.53033537
               0.66584808  0.82450364  1.01025438  1.22772762
               1.48234092  1.78043706  2.12944203  2.53805004
               3.01644009  3.57652955  4.23227104  5.00000000


     -----------------------------------------------
     Non-local corr. energy    =       0.17027161 Ry
     -----------------------------------------------

     Starting wfcs are   16 randomized atomic wfcs

     total cpu time spent up to now is        8.6 secs

     Self-consistent Calculation

     iteration #  1     ecut=    60.00 Ry     beta= 0.70
     Davidson diagonalization with overlap

---- Real-time Memory Report at c_bands before calling an iterative solver
             0 MiB given to the printing process from OS
             0 MiB allocation reported by mallinfo(arena+hblkhd)
             0 MiB available memory on the node where the printing process lives
------------------
     ethr =  1.00E-02,  avg # of iterations =  3.4


     -----------------------------------------------
     Non-local corr. energy    =       0.19364001 Ry
     -----------------------------------------------


     total cpu time spent up to now is        9.5 secs

     total energy              =     -48.20020695 Ry
     estimated scf accuracy    <       0.34355003 Ry

     iteration #  2     ecut=    60.00 Ry     beta= 0.70
     Davidson diagonalization with overlap

---- Real-time Memory Report at c_bands before calling an iterative solver
             0 MiB given to the printing process from OS
             0 MiB allocation reported by mallinfo(arena+hblkhd)
             0 MiB available memory on the node where the printing process lives
------------------
     ethr =  2.15E-03,  avg # of iterations =  4.0


     -----------------------------------------------
     Non-local corr. energy    =       0.19440055 Ry
     -----------------------------------------------


     total cpu time spent up to now is       10.3 secs

     total energy              =     -48.24178659 Ry
     estimated scf accuracy    <       0.00539594 Ry

     iteration #  3     ecut=    60.00 Ry     beta= 0.70
     Davidson diagonalization with overlap

---- Real-time Memory Report at c_bands before calling an iterative solver
             0 MiB given to the printing process from OS
             0 MiB allocation reported by mallinfo(arena+hblkhd)
             0 MiB available memory on the node where the printing process lives
------------------
     c_bands:  1 eigenvalues not converged
     c_bands:  1 eigenvalues not converged
     c_bands:  1 eigenvalues not converged
     ethr =  3.37E-05,  avg # of iterations = 11.9


     -----------------------------------------------
     Non-local corr. energy    =       0.19402348 Ry
     -----------------------------------------------


     total cpu time spent up to now is       11.9 secs

     total energy              =     -48.24315026 Ry
     estimated scf accuracy    <       0.00132218 Ry

     iteration #  4     ecut=    60.00 Ry     beta= 0.70
     Davidson diagonalization with overlap

---- Real-time Memory Report at c_bands before calling an iterative solver
             0 MiB given to the printing process from OS
             0 MiB allocation reported by mallinfo(arena+hblkhd)
             0 MiB available memory on the node where the printing process lives
------------------
     ethr =  8.26E-06,  avg # of iterations =  4.8


     -----------------------------------------------
     Non-local corr. energy    =       0.19394462 Ry
     -----------------------------------------------


     total cpu time spent up to now is       12.8 secs

     total energy              =     -48.24350646 Ry
     estimated scf accuracy    <       0.00063141 Ry

     iteration #  5     ecut=    60.00 Ry     beta= 0.70
     Davidson diagonalization with overlap

---- Real-time Memory Report at c_bands before calling an iterative solver
             0 MiB given to the printing process from OS
             0 MiB allocation reported by mallinfo(arena+hblkhd)
             0 MiB available memory on the node where the printing process lives
------------------
     ethr =  3.95E-06,  avg # of iterations =  3.5


     -----------------------------------------------
     Non-local corr. energy    =       0.19412385 Ry
     -----------------------------------------------


     total cpu time spent up to now is       13.6 secs

     total energy              =     -48.24362486 Ry
     estimated scf accuracy    <       0.00000907 Ry

     iteration #  6     ecut=    60.00 Ry     beta= 0.70
     Davidson diagonalization with overlap

---- Real-time Memory Report at c_bands before calling an iterative solver
             0 MiB given to the printing process from OS
             0 MiB allocation reported by mallinfo(arena+hblkhd)
             0 MiB available memory on the node where the printing process lives
------------------
     ethr =  5.67E-08,  avg # of iterations =  2.7


     -----------------------------------------------
     Non-local corr. energy    =       0.19408782 Ry
     -----------------------------------------------


     total cpu time spent up to now is       14.4 secs

     End of self-consistent calculation

          k = 0.0000 0.0000 0.0000 (  5505 PWs)   bands (ev):

   -20.1508 -19.9776  -8.7229  -7.6466  -3.6328  -3.6327  -3.6220  -3.6219
     2.5621   2.9842   4.0430   5.1846

     occupation numbers 
     1.0000   1.0000   1.0000   1.0000   1.0000   1.0000   1.0000   1.0000
     0.0000   0.0000   0.0000   0.0000

          k = 0.0000 0.0722 0.0000 (  5522 PWs)   bands (ev):

   -20.0583 -19.8861  -8.6103  -7.5380  -4.0104  -3.9944  -3.8310  -3.8169
     2.6859   3.1091   4.1702   5.3109

     occupation numbers 
     1.0000   1.0000   1.0000   1.0000   1.0000   1.0000   1.0000   1.0000
     0.0000   0.0000   0.0000   0.0000

          k = 0.0000 0.1443 0.0000 (  5522 PWs)   bands (ev):

   -19.7814 -19.6120  -8.2754  -7.2146  -5.0216  -4.9930  -4.3388  -4.3193
     3.0574   3.4833   4.5522   5.6899

     occupation numbers 
     1.0000   1.0000   1.0000   1.0000   1.0000   1.0000   1.0000   1.0000
     0.0000   0.0000   0.0000   0.0000

          k = 0.0000 0.2165 0.0000 (  5522 PWs)   bands (ev):

   -19.3218 -19.1573  -7.7224  -6.6825  -6.4312  -6.3882  -4.9918  -4.9677
     3.6758   4.1046   5.1884   6.3188

     occupation numbers 
     1.0000   1.0000   1.0000   1.0000   1.0000   1.0000   1.0000   1.0000
     0.0000   0.0000   0.0000   0.0000

          k = 0.0000 0.2887 0.0000 (  5500 PWs)   bands (ev):

   -18.6825 -18.5248  -8.0353  -7.9768  -6.9606  -5.9529  -5.6484  -5.6216
     4.5392   4.9612   6.0776   6.4881

     occupation numbers 
     1.0000   1.0000   1.0000   1.0000   1.0000   1.0000   1.0000   1.0000
     0.0000   0.0000   0.0000   0.0000

          k = 0.0000 0.3608 0.0000 (  5528 PWs)   bands (ev):

   -17.8699 -17.7204  -9.6943  -9.6218  -6.2214  -6.1922  -6.0102  -5.0543
     4.6615   5.1461   5.6488   6.1275

     occupation numbers 
     1.0000   1.0000   1.0000   1.0000   1.0000   1.0000   1.0000   1.0000
     0.0000   0.0000   0.0000   0.0000

          k = 0.0000 0.4330 0.0000 (  5528 PWs)   bands (ev):

   -16.8933 -16.7543 -11.3187 -11.2322  -6.6575  -6.6273  -4.9149  -4.0467
     2.9396   3.4971   6.8952   7.0062

     occupation numbers 
     1.0000   1.0000   1.0000   1.0000   1.0000   1.0000   1.0000   1.0000
     0.0000   0.0000   0.0000   0.0000

          k = 0.0000 0.5052 0.0000 (  5550 PWs)   bands (ev):

   -15.7822 -15.6576 -12.8309 -12.7346  -6.9289  -6.8982  -3.7993  -3.1222
     1.5165   2.0494   6.8102   7.0324

     occupation numbers 
     1.0000   1.0000   1.0000   1.0000   1.0000   1.0000   1.0000   1.0000
     0.0000   0.0000   0.0000   0.0000

          k = 0.0000-0.5774 0.0000 (  5540 PWs)   bands (ev):

   -14.8791 -14.8136 -13.8179 -13.7683  -7.0207  -6.9898  -3.1556  -2.7572
     0.9454   1.3276   6.7607   6.9888

     occupation numbers 
     1.0000   1.0000   1.0000   1.0000   1.0000   1.0000   1.0000   1.0000
     0.0000   0.0000   0.0000   0.0000

          k = 0.0625 0.1083 0.0000 (  5509 PWs)   bands (ev):

   -19.8736 -19.7033  -8.3866  -7.3220  -4.6593  -4.6429  -4.2204  -4.2079
     2.9336   3.3586   4.4248   5.5636

     occupation numbers 
     1.0000   1.0000   1.0000   1.0000   1.0000   1.0000   1.0000   1.0000
     0.0000   0.0000   0.0000   0.0000

          k = 0.0625 0.1804 0.0000 (  5508 PWs)   bands (ev):

   -19.5053 -19.3389  -7.9424  -6.8936  -5.7963  -5.7665  -4.8772  -4.8574
     3.4288   3.8569   4.9341   6.0681

     occupation numbers 
     1.0000   1.0000   1.0000   1.0000   1.0000   1.0000   1.0000   1.0000
     0.0000   0.0000   0.0000   0.0000

          k = 0.0625 0.2526 0.0000 (  5504 PWs)   bands (ev):

   -18.9559 -18.7953  -7.2868  -7.2495  -7.2045  -6.2621  -5.5883  -5.5611
     4.1704   4.5995   5.6975   6.8154

     occupation numbers 
     1.0000   1.0000   1.0000   1.0000   1.0000   1.0000   1.0000   1.0000
     0.0000   0.0000   0.0000   0.0000

          k = 0.0625 0.3248 0.0000 (  5513 PWs)   bands (ev):

   -18.2299 -18.0769  -8.8539  -8.7908  -6.4266  -6.2346  -6.2030  -5.4448
     5.1518   5.3900   5.7147   5.9092

     occupation numbers 
     1.0000   1.0000   1.0000   1.0000   1.0000   1.0000   1.0000   1.0000
     0.0000   0.0000   0.0000   0.0000

          k = 0.0625 0.3969 0.0000 (  5533 PWs)   bands (ev):

   -17.3348 -17.1911 -10.4812 -10.4028  -6.7548  -6.7208  -5.3970  -4.4809
     3.7497   4.2511   6.3787   6.8398

     occupation numbers 
     1.0000   1.0000   1.0000   1.0000   1.0000   1.0000   1.0000   1.0000
     0.0000   0.0000   0.0000   0.0000

          k = 0.0625 0.4691 0.0000 (  5542 PWs)   bands (ev):

   -16.2863 -16.1544 -12.0470 -11.9557  -7.1166  -7.0808  -4.2655  -3.4743
     2.1455   2.6904   7.2716   7.4830

     occupation numbers 
     1.0000   1.0000   1.0000   1.0000   1.0000   1.0000   1.0000   1.0000
     0.0000   0.0000   0.0000   0.0000

          k = 0.0625 0.5413 0.0000 (  5539 PWs)   bands (ev):

   -15.1603 -15.0529 -13.4264 -13.3368  -7.3008  -7.2649  -3.2694  -2.7576
     1.0772   1.5037   7.1785   7.4116

     occupation numbers 
     1.0000   1.0000   1.0000   1.0000   1.0000   1.0000   1.0000   1.0000
     0.0000   0.0000   0.0000   0.0000

          k = 0.1250 0.2165 0.0000 (  5504 PWs)   bands (ev):

   -19.0472 -18.8857  -7.3932  -6.8219  -6.7963  -6.3656  -5.7340  -5.7157
     4.0475   4.4778   5.5707   6.6984

     occupation numbers 
     1.0000   1.0000   1.0000   1.0000   1.0000   1.0000   1.0000   1.0000
     0.0000   0.0000   0.0000   0.0000

          k = 0.1250 0.2887 0.0000 (  5509 PWs)   bands (ev):

   -18.4110 -18.2562  -8.1269  -8.0840  -6.6369  -6.5848  -6.5557  -5.6430
     4.9108   5.3364   6.0586   6.3337

     occupation numbers 
     1.0000   1.0000   1.0000   1.0000   1.0000   1.0000   1.0000   1.0000
     0.0000   0.0000   0.0000   0.0000

          k = 0.1250 0.3608 0.0000 (  5508 PWs)   bands (ev):

   -17.6022 -17.4558  -9.6219  -9.5580  -7.2600  -7.2208  -5.6923  -4.7497
     4.4291   4.8129   6.0167   6.4572

     occupation numbers 
     1.0000   1.0000   1.0000   1.0000   1.0000   1.0000   1.0000   1.0000
     0.0000   0.0000   0.0000   0.0000

          k = 0.1250 0.4330 0.0000 (  5537 PWs)   bands (ev):

   -16.6324 -16.4962 -11.1601 -11.0792  -7.7421  -7.6975  -4.6008  -3.7450
     2.8116   3.2791   7.3525   7.7835

     occupation numbers 
     1.0000   1.0000   1.0000   1.0000   1.0000   1.0000   1.0000   1.0000
     0.0000   0.0000   0.0000   0.0000

          k = 0.1250 0.5052 0.0000 (  5535 PWs)   bands (ev):

   -15.5316 -15.4098 -12.6243 -12.5323  -8.0322  -7.9851  -3.4799  -2.8048
     1.4424   1.8983   8.3060   8.5572

     occupation numbers 
     1.0000   1.0000   1.0000   1.0000   1.0000   1.0000   1.0000   1.0000
     0.0000   0.0000   0.0000   0.0000

          k = 0.1250 0.5774 0.0000 (  5508 PWs)   bands (ev):

   -14.6415 -14.5778 -13.5876 -13.5413  -8.1286  -8.0809  -2.8176  -2.4228
     0.8919   1.1671   8.2597   8.5240

     occupation numbers 
     1.0000   1.0000   1.0000   1.0000   1.0000   1.0000   1.0000   1.0000
     0.0000   0.0000   0.0000   0.0000

          k = 0.1875 0.3248 0.0000 (  5512 PWs)   bands (ev):

   -17.6918 -17.5447  -9.1089  -9.0738  -7.6567  -7.6302  -5.7920  -4.8408
     4.7231   5.0156   5.8942   6.3195

     occupation numbers 
     1.0000   1.0000   1.0000   1.0000   1.0000   1.0000   1.0000   1.0000
     0.0000   0.0000   0.0000   0.0000

          k = 0.1875 0.3969 0.0000 (  5502 PWs)   bands (ev):

   -16.8074 -16.6693 -10.3386 -10.2820  -8.4708  -8.4296  -4.7750  -3.8897
     3.2851   3.6304   7.1123   7.5172

     occupation numbers 
     1.0000   1.0000   1.0000   1.0000   1.0000   1.0000   1.0000   1.0000
     0.0000   0.0000   0.0000   0.0000

          k = 0.1875 0.4691 0.0000 (  5516 PWs)   bands (ev):

   -15.7762 -15.6495 -11.7157 -11.6367  -8.9576  -8.9041  -3.6467  -2.8748
     1.8691   2.2676   8.5503   8.8844

     occupation numbers 
     1.0000   1.0000   1.0000   1.0000   1.0000   1.0000   1.0000   1.0000
     0.0000   0.0000   0.0000   0.0000

          k = 0.1875 0.5413 0.0000 (  5522 PWs)   bands (ev):

   -14.6758 -14.5737 -13.0054 -12.9249  -9.1848  -9.1268  -2.6165  -2.1032
     0.8611   1.1343   9.7274  10.0629

     occupation numbers 
     1.0000   1.0000   1.0000   1.0000   1.0000   1.0000   1.0000   1.0000
     0.0000   0.0000   0.0000   0.0000

          k = 0.2500 0.4330 0.0000 (  5486 PWs)   bands (ev):

   -15.8596 -15.7318 -11.1310 -11.0868  -9.5341  -9.5014  -3.7083  -2.9061
     2.0707   2.4109   8.4303   8.7344

     occupation numbers 
     1.0000   1.0000   1.0000   1.0000   1.0000   1.0000   1.0000   1.0000
     0.0000   0.0000   0.0000   0.0000

          k = 0.2500 0.5052 0.0000 (  5469 PWs)   bands (ev):

   -14.7935 -14.6804 -12.1848 -12.1188 -10.1509 -10.1007  -2.5740  -1.9145
     0.8911   1.2388   9.7816   9.9323

     occupation numbers 
     1.0000   1.0000   1.0000   1.0000   1.0000   1.0000   1.0000   1.0000
     0.0000   0.0000   0.0000   0.0000

          k = 0.2500 0.5774 0.0000 (  5496 PWs)   bands (ev):

   -13.9314 -13.8722 -13.0281 -13.0030 -10.3311 -10.2718  -1.8171  -1.4343
     0.3686   0.4469  10.0586  10.2192

     occupation numbers 
     1.0000   1.0000   1.0000   1.0000   1.0000   1.0000   1.0000   1.0000
     0.0000   0.0000   0.0000   0.0000

          k = 0.3125 0.5413 0.0000 (  5484 PWs)   bands (ev):

   -13.7629 -13.6730 -12.7539 -12.7013 -10.9525 -10.9281  -1.4660  -0.9558
    -0.1291   0.2466   9.8766   9.9648

     occupation numbers 
     1.0000   1.0000   1.0000   1.0000   1.0000   1.0000   1.0000   1.0000
     0.0000   0.0000   0.0000   0.0000

     the Fermi energy is    -0.5037 ev

!    total energy              =     -48.24362851 Ry
     estimated scf accuracy    <       0.00000045 Ry
     smearing contrib. (-TS)   =       0.00000000 Ry
     internal energy E=F+TS    =     -48.24362851 Ry

     The total energy is F=E-TS. E is the sum of the following terms:
     one-electron contribution =    -529.06160303 Ry
     hartree contribution      =     268.20005982 Ry
     xc contribution           =     -17.20827333 Ry
     ewald contribution        =     229.82618804 Ry

     convergence has been achieved in   6 iterations


     -----------------------------------------------
     Non-local corr. energy    =       0.19408782 Ry
     -----------------------------------------------


     Forces acting on atoms (cartesian axes, Ry/au):

     atom    1 type  1   force =     0.00000000    0.00000000   -0.00011949
     atom    2 type  1   force =     0.00000000    0.00000000    0.00012716
     atom    3 type  1   force =     0.00000000    0.00000000   -0.00083509
     atom    4 type  1   force =     0.00000000    0.00000000    0.00082743
     The non-local contrib.  to forces
     atom    1 type  1   force =     0.00000000    0.00000000   -0.00004573
     atom    2 type  1   force =     0.00000000    0.00000000    0.00005323
     atom    3 type  1   force =     0.00000000   -0.00000000   -0.00102667
     atom    4 type  1   force =     0.00000000    0.00000000    0.00101600
     The ionic contribution  to forces
     atom    1 type  1   force =     0.00000851   -0.00000491  -14.19328446
     atom    2 type  1   force =    -0.00000851    0.00000491   14.19328446
     atom    3 type  1   force =    -0.00000852    0.00000492  -14.18753220
     atom    4 type  1   force =     0.00000852   -0.00000492   14.18753220
     The local contribution  to forces
     atom    1 type  1   force =    -0.00000000    0.00000000   14.19370515
     atom    2 type  1   force =     0.00000000   -0.00000000  -14.19366665
     atom    3 type  1   force =    -0.00000677    0.00000391   14.18817364
     atom    4 type  1   force =     0.00000677   -0.00000391  -14.18812847
     The core correction contribution to forces
     atom    1 type  1   force =    -0.00000000    0.00000000   -0.00006785
     atom    2 type  1   force =     0.00000000   -0.00000000    0.00006805
     atom    3 type  1   force =     0.00000056   -0.00000032   -0.00002347
     atom    4 type  1   force =    -0.00000056    0.00000032    0.00002433
     The Hubbard contrib.    to forces
     atom    1 type  1   force =     0.00000000    0.00000000    0.00000000
     atom    2 type  1   force =     0.00000000    0.00000000    0.00000000
     atom    3 type  1   force =     0.00000000    0.00000000    0.00000000
     atom    4 type  1   force =     0.00000000    0.00000000    0.00000000
     The SCF correction term to forces
     atom    1 type  1   force =     0.00000000   -0.00000000   -0.00000000
     atom    2 type  1   force =    -0.00000000    0.00000000    0.00039110
     atom    3 type  1   force =    -0.00000000    0.00000000   -0.00000000
     atom    4 type  1   force =     0.00000000   -0.00000000    0.00038640

     Total force =     0.000837     Total SCF correction =     0.000550
     SCF correction compared to forces is large: reduce conv_thr to get better values


     Computing stress (Cartesian axis) and pressure



     -----------------------------------------------
     Non-local corr. energy    =       0.19408782 Ry
     -----------------------------------------------

          total   stress  (Ry/bohr**3)                   (kbar)     P=      -15.20
  -0.00010189  -0.00000000   0.00000000          -14.99       -0.00        0.00
   0.00000000  -0.00010189   0.00000000            0.00      -14.99        0.00
   0.00000000   0.00000000  -0.00010630            0.00        0.00      -15.64

     kinetic stress (kbar)   4516.78      0.00      0.00
                                0.00   4516.78     -0.00
                                0.00     -0.00   4973.13

     local   stress (kbar)-115135.73      0.00     -0.00
                                0.00-115135.72      0.00
                               -0.00      0.00 116482.68

     nonloc. stress (kbar)   -463.49      0.00      0.00
                                0.00   -463.49     -0.00
                                0.00     -0.00   -387.53

     hartree stress (kbar)  55765.29     -0.00      0.00
                               -0.00  55765.29     -0.00
                                0.00     -0.00 -55418.16

     exc-cor stress (kbar)   -360.57     -0.00      0.00
                               -0.00   -360.57     -0.00
                                0.00     -0.00   -420.13

     corecor stress (kbar)   -686.83      0.00      0.00
                                0.00   -686.83     -0.00
                                0.00     -0.00   -668.00

     ewald   stress (kbar)  56346.45     -0.01      0.00
                               -0.01  56346.44     -0.00
                                0.00     -0.00 -64608.99

     hubbard stress (kbar)      0.00      0.00      0.00
                                0.00      0.00      0.00
                                0.00      0.00      0.00

     DFT-D   stress (kbar)      0.00      0.00      0.00
                                0.00      0.00      0.00
                                0.00      0.00      0.00

     XDM     stress (kbar)      0.00      0.00      0.00
                                0.00      0.00      0.00
                                0.00      0.00      0.00

     dft-nl  stress (kbar)      3.11      0.00      0.00
                                0.00      3.11     -0.00
                                0.00     -0.00     31.36

     TS-vdW  stress (kbar)      0.00      0.00      0.00
                                0.00      0.00      0.00
                                0.00      0.00      0.00


                                0.00      0.00      0.00
                                0.00      0.00      0.00


                                0.00      0.00      0.00


     Writing all to output data dir ./tmp/C2L_AB_PBE_vdW.save/

     init_run     :      8.51s CPU      8.53s WALL (       1 calls)
     electrons    :      5.51s CPU      5.87s WALL (       1 calls)
     forces       :      0.13s CPU      0.14s WALL (       1 calls)
     stress       :      0.33s CPU      0.34s WALL (       1 calls)

     Called by init_run:
     wfcinit      :      0.27s CPU      0.28s WALL (       1 calls)
     wfcinit:atom :      0.00s CPU      0.00s WALL (      30 calls)
     wfcinit:wfcr :      0.25s CPU      0.25s WALL (      30 calls)
     potinit      :      7.92s CPU      7.93s WALL (       1 calls)
     hinit0       :      0.30s CPU      0.30s WALL (       1 calls)

     Called by electrons:
     c_bands      :      4.91s CPU      5.22s WALL (       6 calls)
     sum_band     :      0.34s CPU      0.35s WALL (       6 calls)
     v_of_rho     :      8.14s CPU      8.18s WALL (       7 calls)
     v_h          :      0.00s CPU      0.00s WALL (       7 calls)
     v_xc         :      8.23s CPU      8.26s WALL (       9 calls)
     mix_rho      :      0.01s CPU      0.02s WALL (       6 calls)
     vdW_kernel   :      7.86s CPU      7.87s WALL (       1 calls)

     Called by c_bands:
     init_us_2    :      0.06s CPU      0.06s WALL (     450 calls)
     init_us_2:cp :      0.06s CPU      0.06s WALL (     450 calls)
     cegterg      :      4.79s CPU      5.10s WALL (     180 calls)

     Called by sum_band:
     sum_band:wei :      0.00s CPU      0.00s WALL (       6 calls)
     sum_band:loo :      0.34s CPU      0.35s WALL (       6 calls)
     sum_band:buf :      0.01s CPU      0.01s WALL (     180 calls)
     sum_band:ini :      0.02s CPU      0.02s WALL (     180 calls)

     Called by *egterg:
     cdiaghg      :      0.55s CPU      0.57s WALL (    1092 calls)
     cegterg:over :      0.37s CPU      0.38s WALL (     912 calls)
     cegterg:upda :      0.47s CPU      0.67s WALL (     912 calls)
     cegterg:last :      0.36s CPU      0.38s WALL (     477 calls)
     cdiaghg:chol :      0.05s CPU      0.05s WALL (    1092 calls)
     cdiaghg:inve :      0.02s CPU      0.02s WALL (    1092 calls)
     cdiaghg:para :      0.07s CPU      0.08s WALL (    2184 calls)
     h_psi        :      3.10s CPU      3.15s WALL (    1122 calls)
     g_psi        :      0.02s CPU      0.03s WALL (     912 calls)

     Called by h_psi:
     h_psi:calbec :      0.24s CPU      0.24s WALL (    1122 calls)
     vloc_psi     :      2.58s CPU      2.65s WALL (    1122 calls)
     add_vuspsi   :      0.27s CPU      0.23s WALL (    1122 calls)

     General routines
     calbec       :      0.28s CPU      0.28s WALL (    1272 calls)
     fft          :      0.40s CPU      0.41s WALL (     588 calls)
     ffts         :      0.00s CPU      0.00s WALL (       6 calls)
     fftw         :      2.60s CPU      2.67s WALL (   16748 calls)

     Parallel routines

     PWSCF        :     14.54s CPU     14.98s WALL


   This run was terminated on:   7:10: 9  14Apr2025            

=------------------------------------------------------------------------------=
   JOB DONE.
=------------------------------------------------------------------------------=
