
     Program PWSCF v.7.0 starts on 14Apr2025 at  7:10:10 

     This program is part of the open-source Quantum ESPRESSO suite
     for quantum simulation of materials; please cite
         "P. Giannozzi et al., J. Phys.:Condens. Matter 21 395502 (2009);
         "P. Giannozzi et al., J. Phys.:Condens. Matter 29 465901 (2017);
         "P. Giannozzi et al., J. Chem. Phys. 152 154105 (2020);
          URL http://www.quantum-espresso.org", 
     in publications or presentations arising from this work. More details at
     http://www.quantum-espresso.org/quote

     Parallel version (MPI & OpenMP), running on       8 processor cores
     Number of MPI processes:                 8
     Threads/MPI process:                     1

     MPI processes distributed on     1 nodes
     R & G space division:  proc/nbgrp/npool/nimage =       8
     0 MiB available memory on the printing compute node when the environment starts

     Waiting for input...
     Reading input from standard input
Warning: card &IONS ignored
Warning: card / ignored

     Current dimensions of program PWSCF are:
     Max number of different atomic species (ntypx) = 10
     Max number of k-points (npk) =  40000
     Max angular momentum in pseudopotentials (lmaxx) =  4

     Atomic positions and unit cell read from directory:
     ./tmp/C2L_AB_PBE_vdW.save/
     Atomic positions from file used, from input discarded


     IMPORTANT: XC functional enforced from input :
     Exchange-correlation= VDW-DF2-B86R
                           (   1   4  26   0   2   0   0)
     Any further DFT definition will be discarded
     Please, verify this is what you really want


     Subspace diagonalization in iterative solution of the eigenvalue problem:
     one sub-group per band group will be used
     scalapack distributed-memory algorithm (size of sub-group:  2*  2 procs)


     Parallelization info
     --------------------
     sticks:   dense  smooth     PW     G-vecs:    dense   smooth      PW
     Min          45      45     15                 5519     5519    1107
     Max          46      46     16                 5546     5546    1138
     Sum         361     361    121                44285    44285    8929

     Using Slab Decomposition



     bravais-lattice index     =            4
     lattice parameter (alat)  =       4.6645  a.u.
     unit-cell volume          =     703.1169 (a.u.)^3
     number of atoms/cell      =            4
     number of atomic types    =            1
     number of electrons       =        16.00
     number of Kohn-Sham states=           16
     kinetic-energy cutoff     =      60.0000  Ry
     charge density cutoff     =     240.0000  Ry
     Exchange-correlation= VDW-DF2-B86R
                           (   1   4  26   0   2   0   0)

     celldm(1)=   4.664470  celldm(2)=   0.000000  celldm(3)=   8.000000
     celldm(4)=   0.000000  celldm(5)=   0.000000  celldm(6)=   0.000000

     crystal axes: (cart. coord. in units of alat)
               a(1) = (   1.000000   0.000000   0.000000 )  
               a(2) = (  -0.500000   0.866025   0.000000 )  
               a(3) = (   0.000000   0.000000   8.000000 )  

     reciprocal axes: (cart. coord. in units 2 pi/alat)
               b(1) = (  1.000000  0.577350 -0.000000 )  
               b(2) = (  0.000000  1.154701  0.000000 )  
               b(3) = (  0.000000 -0.000000  0.125000 )  


     PseudoPot. # 1 for C  read from file:
     ../../../../Pseudo/PBE/C.upf
     MD5 check sum: 34a24e64c0a39f27c6c36b90a16ac686
     Pseudo is Norm-conserving + core correction, Zval =  4.0
     Generated using ONCVPSP code by D. R. Hamann
     Using radial grid of 1248 points,  4 beta functions with: 
                l(1) =   0
                l(2) =   0
                l(3) =   1
                l(4) =   1

     atomic species   valence    mass     pseudopotential
        C              4.00    12.01100     C ( 1.00)

     No symmetry found


                                    s                        frac. trans.

      isym =  1     identity                                     

 cryst.   s( 1) = (     1          0          0      )
                  (     0          1          0      )
                  (     0          0          1      )

 cart.    s( 1) = (  1.0000000  0.0000000  0.0000000 )
                  (  0.0000000  1.0000000  0.0000000 )
                  (  0.0000000  0.0000000  1.0000000 )


     point group C_1 (1)    
     there are  1 classes
     the character table:

       E    
A      1.00

     the symmetry operations in each class and the name of the first element:

     E        1
          identity                                               

   Cartesian axes

     site n.     atom                  positions (alat units)
         1           C   tau(   1) = (   0.0000000   0.0000000   0.0000000  )
         2           C   tau(   2) = (   0.0000000   0.0000000   1.3401360  )
         3           C   tau(   3) = (   0.5000005   0.2886748   0.0000000  )
         4           C   tau(   4) = (  -0.0000005   0.5773506   1.3401360  )

   Crystallographic axes

     site n.     atom                  positions (cryst. coord.)
         1           C   tau(   1) = (  0.0000000  0.0000000  0.0000000  )
         2           C   tau(   2) = (  0.0000000  0.0000000  0.1675170  )
         3           C   tau(   3) = (  0.6666670  0.3333330  0.0000000  )
         4           C   tau(   4) = (  0.3333330  0.6666670  0.1675170  )

     number of k points=   256  Gaussian smearing, width (Ry)=  0.0050
                       cart. coord. in units 2pi/alat
        k(    1) = (   0.0000000   0.0000000   0.0000000), wk =   0.0078125
        k(    2) = (   0.0000000   0.0721688   0.0000000), wk =   0.0078125
        k(    3) = (   0.0000000   0.1443376   0.0000000), wk =   0.0078125
        k(    4) = (   0.0000000   0.2165064   0.0000000), wk =   0.0078125
        k(    5) = (   0.0000000   0.2886751   0.0000000), wk =   0.0078125
        k(    6) = (   0.0000000   0.3608439   0.0000000), wk =   0.0078125
        k(    7) = (   0.0000000   0.4330127   0.0000000), wk =   0.0078125
        k(    8) = (   0.0000000   0.5051815   0.0000000), wk =   0.0078125
        k(    9) = (   0.0000000  -0.5773503   0.0000000), wk =   0.0078125
        k(   10) = (   0.0000000  -0.5051815   0.0000000), wk =   0.0078125
        k(   11) = (   0.0000000  -0.4330127   0.0000000), wk =   0.0078125
        k(   12) = (   0.0000000  -0.3608439   0.0000000), wk =   0.0078125
        k(   13) = (   0.0000000  -0.2886751   0.0000000), wk =   0.0078125
        k(   14) = (   0.0000000  -0.2165064   0.0000000), wk =   0.0078125
        k(   15) = (   0.0000000  -0.1443376   0.0000000), wk =   0.0078125
        k(   16) = (   0.0000000  -0.0721688   0.0000000), wk =   0.0078125
        k(   17) = (   0.0625000   0.0360844   0.0000000), wk =   0.0078125
        k(   18) = (   0.0625000   0.1082532   0.0000000), wk =   0.0078125
        k(   19) = (   0.0625000   0.1804220   0.0000000), wk =   0.0078125
        k(   20) = (   0.0625000   0.2525907   0.0000000), wk =   0.0078125
        k(   21) = (   0.0625000   0.3247595   0.0000000), wk =   0.0078125
        k(   22) = (   0.0625000   0.3969283   0.0000000), wk =   0.0078125
        k(   23) = (   0.0625000   0.4690971   0.0000000), wk =   0.0078125
        k(   24) = (   0.0625000   0.5412659   0.0000000), wk =   0.0078125
        k(   25) = (   0.0625000  -0.5412659   0.0000000), wk =   0.0078125
        k(   26) = (   0.0625000  -0.4690971   0.0000000), wk =   0.0078125
        k(   27) = (   0.0625000  -0.3969283   0.0000000), wk =   0.0078125
        k(   28) = (   0.0625000  -0.3247595   0.0000000), wk =   0.0078125
        k(   29) = (   0.0625000  -0.2525907   0.0000000), wk =   0.0078125
        k(   30) = (   0.0625000  -0.1804220   0.0000000), wk =   0.0078125
        k(   31) = (   0.0625000  -0.1082532   0.0000000), wk =   0.0078125
        k(   32) = (   0.0625000  -0.0360844   0.0000000), wk =   0.0078125
        k(   33) = (   0.1250000   0.0721688   0.0000000), wk =   0.0078125
        k(   34) = (   0.1250000   0.1443376   0.0000000), wk =   0.0078125
        k(   35) = (   0.1250000   0.2165064   0.0000000), wk =   0.0078125
        k(   36) = (   0.1250000   0.2886751   0.0000000), wk =   0.0078125
        k(   37) = (   0.1250000   0.3608439   0.0000000), wk =   0.0078125
        k(   38) = (   0.1250000   0.4330127   0.0000000), wk =   0.0078125
        k(   39) = (   0.1250000   0.5051815   0.0000000), wk =   0.0078125
        k(   40) = (   0.1250000   0.5773503   0.0000000), wk =   0.0078125
        k(   41) = (   0.1250000  -0.5051815   0.0000000), wk =   0.0078125
        k(   42) = (   0.1250000  -0.4330127   0.0000000), wk =   0.0078125
        k(   43) = (   0.1250000  -0.3608439   0.0000000), wk =   0.0078125
        k(   44) = (   0.1250000  -0.2886751   0.0000000), wk =   0.0078125
        k(   45) = (   0.1250000  -0.2165064   0.0000000), wk =   0.0078125
        k(   46) = (   0.1250000  -0.1443376   0.0000000), wk =   0.0078125
        k(   47) = (   0.1250000  -0.0721688   0.0000000), wk =   0.0078125
        k(   48) = (   0.1250000   0.0000000   0.0000000), wk =   0.0078125
        k(   49) = (   0.1875000   0.1082532   0.0000000), wk =   0.0078125
        k(   50) = (   0.1875000   0.1804220   0.0000000), wk =   0.0078125
        k(   51) = (   0.1875000   0.2525907   0.0000000), wk =   0.0078125
        k(   52) = (   0.1875000   0.3247595   0.0000000), wk =   0.0078125
        k(   53) = (   0.1875000   0.3969283   0.0000000), wk =   0.0078125
        k(   54) = (   0.1875000   0.4690971   0.0000000), wk =   0.0078125
        k(   55) = (   0.1875000   0.5412659   0.0000000), wk =   0.0078125
        k(   56) = (   0.1875000   0.6134347   0.0000000), wk =   0.0078125
        k(   57) = (   0.1875000  -0.4690971   0.0000000), wk =   0.0078125
        k(   58) = (   0.1875000  -0.3969283   0.0000000), wk =   0.0078125
        k(   59) = (   0.1875000  -0.3247595   0.0000000), wk =   0.0078125
        k(   60) = (   0.1875000  -0.2525907   0.0000000), wk =   0.0078125
        k(   61) = (   0.1875000  -0.1804220   0.0000000), wk =   0.0078125
        k(   62) = (   0.1875000  -0.1082532   0.0000000), wk =   0.0078125
        k(   63) = (   0.1875000  -0.0360844   0.0000000), wk =   0.0078125
        k(   64) = (   0.1875000   0.0360844   0.0000000), wk =   0.0078125
        k(   65) = (   0.2500000   0.1443376   0.0000000), wk =   0.0078125
        k(   66) = (   0.2500000   0.2165064   0.0000000), wk =   0.0078125
        k(   67) = (   0.2500000   0.2886751   0.0000000), wk =   0.0078125
        k(   68) = (   0.2500000   0.3608439   0.0000000), wk =   0.0078125
        k(   69) = (   0.2500000   0.4330127   0.0000000), wk =   0.0078125
        k(   70) = (   0.2500000   0.5051815   0.0000000), wk =   0.0078125
        k(   71) = (   0.2500000   0.5773503   0.0000000), wk =   0.0078125
        k(   72) = (   0.2500000   0.6495191   0.0000000), wk =   0.0078125
        k(   73) = (   0.2500000  -0.4330127   0.0000000), wk =   0.0078125
        k(   74) = (   0.2500000  -0.3608439   0.0000000), wk =   0.0078125
        k(   75) = (   0.2500000  -0.2886751   0.0000000), wk =   0.0078125
        k(   76) = (   0.2500000  -0.2165064   0.0000000), wk =   0.0078125
        k(   77) = (   0.2500000  -0.1443376   0.0000000), wk =   0.0078125
        k(   78) = (   0.2500000  -0.0721688   0.0000000), wk =   0.0078125
        k(   79) = (   0.2500000   0.0000000   0.0000000), wk =   0.0078125
        k(   80) = (   0.2500000   0.0721688   0.0000000), wk =   0.0078125
        k(   81) = (   0.3125000   0.1804220   0.0000000), wk =   0.0078125
        k(   82) = (   0.3125000   0.2525907   0.0000000), wk =   0.0078125
        k(   83) = (   0.3125000   0.3247595   0.0000000), wk =   0.0078125
        k(   84) = (   0.3125000   0.3969283   0.0000000), wk =   0.0078125
        k(   85) = (   0.3125000   0.4690971   0.0000000), wk =   0.0078125
        k(   86) = (   0.3125000   0.5412659   0.0000000), wk =   0.0078125
        k(   87) = (   0.3125000   0.6134347   0.0000000), wk =   0.0078125
        k(   88) = (   0.3125000   0.6856034   0.0000000), wk =   0.0078125
        k(   89) = (   0.3125000  -0.3969283   0.0000000), wk =   0.0078125
        k(   90) = (   0.3125000  -0.3247595   0.0000000), wk =   0.0078125
        k(   91) = (   0.3125000  -0.2525907   0.0000000), wk =   0.0078125
        k(   92) = (   0.3125000  -0.1804220   0.0000000), wk =   0.0078125
        k(   93) = (   0.3125000  -0.1082532   0.0000000), wk =   0.0078125
        k(   94) = (   0.3125000  -0.0360844   0.0000000), wk =   0.0078125
        k(   95) = (   0.3125000   0.0360844   0.0000000), wk =   0.0078125
        k(   96) = (   0.3125000   0.1082532   0.0000000), wk =   0.0078125
        k(   97) = (   0.3750000   0.2165064   0.0000000), wk =   0.0078125
        k(   98) = (   0.3750000   0.2886751   0.0000000), wk =   0.0078125
        k(   99) = (   0.3750000   0.3608439   0.0000000), wk =   0.0078125
        k(  100) = (   0.3750000   0.4330127   0.0000000), wk =   0.0078125
        k(  101) = (   0.3750000   0.5051815   0.0000000), wk =   0.0078125
        k(  102) = (   0.3750000   0.5773503   0.0000000), wk =   0.0078125
        k(  103) = (   0.3750000   0.6495191   0.0000000), wk =   0.0078125
        k(  104) = (   0.3750000   0.7216878   0.0000000), wk =   0.0078125
        k(  105) = (   0.3750000  -0.3608439   0.0000000), wk =   0.0078125
        k(  106) = (   0.3750000  -0.2886751   0.0000000), wk =   0.0078125
        k(  107) = (   0.3750000  -0.2165064   0.0000000), wk =   0.0078125
        k(  108) = (   0.3750000  -0.1443376   0.0000000), wk =   0.0078125
        k(  109) = (   0.3750000  -0.0721688   0.0000000), wk =   0.0078125
        k(  110) = (   0.3750000   0.0000000   0.0000000), wk =   0.0078125
        k(  111) = (   0.3750000   0.0721688   0.0000000), wk =   0.0078125
        k(  112) = (   0.3750000   0.1443376   0.0000000), wk =   0.0078125
        k(  113) = (   0.4375000   0.2525907   0.0000000), wk =   0.0078125
        k(  114) = (   0.4375000   0.3247595   0.0000000), wk =   0.0078125
        k(  115) = (   0.4375000   0.3969283   0.0000000), wk =   0.0078125
        k(  116) = (   0.4375000   0.4690971   0.0000000), wk =   0.0078125
        k(  117) = (   0.4375000   0.5412659   0.0000000), wk =   0.0078125
        k(  118) = (   0.4375000   0.6134347   0.0000000), wk =   0.0078125
        k(  119) = (   0.4375000   0.6856034   0.0000000), wk =   0.0078125
        k(  120) = (   0.4375000   0.7577722   0.0000000), wk =   0.0078125
        k(  121) = (   0.4375000  -0.3247595   0.0000000), wk =   0.0078125
        k(  122) = (   0.4375000  -0.2525907   0.0000000), wk =   0.0078125
        k(  123) = (   0.4375000  -0.1804220   0.0000000), wk =   0.0078125
        k(  124) = (   0.4375000  -0.1082532   0.0000000), wk =   0.0078125
        k(  125) = (   0.4375000  -0.0360844   0.0000000), wk =   0.0078125
        k(  126) = (   0.4375000   0.0360844   0.0000000), wk =   0.0078125
        k(  127) = (   0.4375000   0.1082532   0.0000000), wk =   0.0078125
        k(  128) = (   0.4375000   0.1804220   0.0000000), wk =   0.0078125
        k(  129) = (  -0.5000000  -0.2886751   0.0000000), wk =   0.0078125
        k(  130) = (  -0.5000000  -0.2165064   0.0000000), wk =   0.0078125
        k(  131) = (  -0.5000000  -0.1443376   0.0000000), wk =   0.0078125
        k(  132) = (  -0.5000000  -0.0721688   0.0000000), wk =   0.0078125
        k(  133) = (  -0.5000000   0.0000000   0.0000000), wk =   0.0078125
        k(  134) = (  -0.5000000   0.0721688   0.0000000), wk =   0.0078125
        k(  135) = (  -0.5000000   0.1443376   0.0000000), wk =   0.0078125
        k(  136) = (  -0.5000000   0.2165064   0.0000000), wk =   0.0078125
        k(  137) = (  -0.5000000  -0.8660254   0.0000000), wk =   0.0078125
        k(  138) = (  -0.5000000  -0.7938566   0.0000000), wk =   0.0078125
        k(  139) = (  -0.5000000  -0.7216878   0.0000000), wk =   0.0078125
        k(  140) = (  -0.5000000  -0.6495191   0.0000000), wk =   0.0078125
        k(  141) = (  -0.5000000  -0.5773503   0.0000000), wk =   0.0078125
        k(  142) = (  -0.5000000  -0.5051815   0.0000000), wk =   0.0078125
        k(  143) = (  -0.5000000  -0.4330127   0.0000000), wk =   0.0078125
        k(  144) = (  -0.5000000  -0.3608439   0.0000000), wk =   0.0078125
        k(  145) = (  -0.4375000  -0.2525907   0.0000000), wk =   0.0078125
        k(  146) = (  -0.4375000  -0.1804220   0.0000000), wk =   0.0078125
        k(  147) = (  -0.4375000  -0.1082532   0.0000000), wk =   0.0078125
        k(  148) = (  -0.4375000  -0.0360844   0.0000000), wk =   0.0078125
        k(  149) = (  -0.4375000   0.0360844   0.0000000), wk =   0.0078125
        k(  150) = (  -0.4375000   0.1082532   0.0000000), wk =   0.0078125
        k(  151) = (  -0.4375000   0.1804220   0.0000000), wk =   0.0078125
        k(  152) = (  -0.4375000   0.2525907   0.0000000), wk =   0.0078125
        k(  153) = (  -0.4375000  -0.8299410   0.0000000), wk =   0.0078125
        k(  154) = (  -0.4375000  -0.7577722   0.0000000), wk =   0.0078125
        k(  155) = (  -0.4375000  -0.6856034   0.0000000), wk =   0.0078125
        k(  156) = (  -0.4375000  -0.6134347   0.0000000), wk =   0.0078125
        k(  157) = (  -0.4375000  -0.5412659   0.0000000), wk =   0.0078125
        k(  158) = (  -0.4375000  -0.4690971   0.0000000), wk =   0.0078125
        k(  159) = (  -0.4375000  -0.3969283   0.0000000), wk =   0.0078125
        k(  160) = (  -0.4375000  -0.3247595   0.0000000), wk =   0.0078125
        k(  161) = (  -0.3750000  -0.2165064   0.0000000), wk =   0.0078125
        k(  162) = (  -0.3750000  -0.1443376   0.0000000), wk =   0.0078125
        k(  163) = (  -0.3750000  -0.0721688   0.0000000), wk =   0.0078125
        k(  164) = (  -0.3750000   0.0000000   0.0000000), wk =   0.0078125
        k(  165) = (  -0.3750000   0.0721688   0.0000000), wk =   0.0078125
        k(  166) = (  -0.3750000   0.1443376   0.0000000), wk =   0.0078125
        k(  167) = (  -0.3750000   0.2165064   0.0000000), wk =   0.0078125
        k(  168) = (  -0.3750000   0.2886751   0.0000000), wk =   0.0078125
        k(  169) = (  -0.3750000  -0.7938566   0.0000000), wk =   0.0078125
        k(  170) = (  -0.3750000  -0.7216878   0.0000000), wk =   0.0078125
        k(  171) = (  -0.3750000  -0.6495191   0.0000000), wk =   0.0078125
        k(  172) = (  -0.3750000  -0.5773503   0.0000000), wk =   0.0078125
        k(  173) = (  -0.3750000  -0.5051815   0.0000000), wk =   0.0078125
        k(  174) = (  -0.3750000  -0.4330127   0.0000000), wk =   0.0078125
        k(  175) = (  -0.3750000  -0.3608439   0.0000000), wk =   0.0078125
        k(  176) = (  -0.3750000  -0.2886751   0.0000000), wk =   0.0078125
        k(  177) = (  -0.3125000  -0.1804220   0.0000000), wk =   0.0078125
        k(  178) = (  -0.3125000  -0.1082532   0.0000000), wk =   0.0078125
        k(  179) = (  -0.3125000  -0.0360844   0.0000000), wk =   0.0078125
        k(  180) = (  -0.3125000   0.0360844   0.0000000), wk =   0.0078125
        k(  181) = (  -0.3125000   0.1082532   0.0000000), wk =   0.0078125
        k(  182) = (  -0.3125000   0.1804220   0.0000000), wk =   0.0078125
        k(  183) = (  -0.3125000   0.2525907   0.0000000), wk =   0.0078125
        k(  184) = (  -0.3125000   0.3247595   0.0000000), wk =   0.0078125
        k(  185) = (  -0.3125000  -0.7577722   0.0000000), wk =   0.0078125
        k(  186) = (  -0.3125000  -0.6856034   0.0000000), wk =   0.0078125
        k(  187) = (  -0.3125000  -0.6134347   0.0000000), wk =   0.0078125
        k(  188) = (  -0.3125000  -0.5412659   0.0000000), wk =   0.0078125
        k(  189) = (  -0.3125000  -0.4690971   0.0000000), wk =   0.0078125
        k(  190) = (  -0.3125000  -0.3969283   0.0000000), wk =   0.0078125
        k(  191) = (  -0.3125000  -0.3247595   0.0000000), wk =   0.0078125
        k(  192) = (  -0.3125000  -0.2525907   0.0000000), wk =   0.0078125
        k(  193) = (  -0.2500000  -0.1443376   0.0000000), wk =   0.0078125
        k(  194) = (  -0.2500000  -0.0721688   0.0000000), wk =   0.0078125
        k(  195) = (  -0.2500000   0.0000000   0.0000000), wk =   0.0078125
        k(  196) = (  -0.2500000   0.0721688   0.0000000), wk =   0.0078125
        k(  197) = (  -0.2500000   0.1443376   0.0000000), wk =   0.0078125
        k(  198) = (  -0.2500000   0.2165064   0.0000000), wk =   0.0078125
        k(  199) = (  -0.2500000   0.2886751   0.0000000), wk =   0.0078125
        k(  200) = (  -0.2500000   0.3608439   0.0000000), wk =   0.0078125
        k(  201) = (  -0.2500000  -0.7216878   0.0000000), wk =   0.0078125
        k(  202) = (  -0.2500000  -0.6495191   0.0000000), wk =   0.0078125
        k(  203) = (  -0.2500000  -0.5773503   0.0000000), wk =   0.0078125
        k(  204) = (  -0.2500000  -0.5051815   0.0000000), wk =   0.0078125
        k(  205) = (  -0.2500000  -0.4330127   0.0000000), wk =   0.0078125
        k(  206) = (  -0.2500000  -0.3608439   0.0000000), wk =   0.0078125
        k(  207) = (  -0.2500000  -0.2886751   0.0000000), wk =   0.0078125
        k(  208) = (  -0.2500000  -0.2165064   0.0000000), wk =   0.0078125
        k(  209) = (  -0.1875000  -0.1082532   0.0000000), wk =   0.0078125
        k(  210) = (  -0.1875000  -0.0360844   0.0000000), wk =   0.0078125
        k(  211) = (  -0.1875000   0.0360844   0.0000000), wk =   0.0078125
        k(  212) = (  -0.1875000   0.1082532   0.0000000), wk =   0.0078125
        k(  213) = (  -0.1875000   0.1804220   0.0000000), wk =   0.0078125
        k(  214) = (  -0.1875000   0.2525907   0.0000000), wk =   0.0078125
        k(  215) = (  -0.1875000   0.3247595   0.0000000), wk =   0.0078125
        k(  216) = (  -0.1875000   0.3969283   0.0000000), wk =   0.0078125
        k(  217) = (  -0.1875000  -0.6856034   0.0000000), wk =   0.0078125
        k(  218) = (  -0.1875000  -0.6134347   0.0000000), wk =   0.0078125
        k(  219) = (  -0.1875000  -0.5412659   0.0000000), wk =   0.0078125
        k(  220) = (  -0.1875000  -0.4690971   0.0000000), wk =   0.0078125
        k(  221) = (  -0.1875000  -0.3969283   0.0000000), wk =   0.0078125
        k(  222) = (  -0.1875000  -0.3247595   0.0000000), wk =   0.0078125
        k(  223) = (  -0.1875000  -0.2525907   0.0000000), wk =   0.0078125
        k(  224) = (  -0.1875000  -0.1804220   0.0000000), wk =   0.0078125
        k(  225) = (  -0.1250000  -0.0721688   0.0000000), wk =   0.0078125
        k(  226) = (  -0.1250000   0.0000000   0.0000000), wk =   0.0078125
        k(  227) = (  -0.1250000   0.0721688   0.0000000), wk =   0.0078125
        k(  228) = (  -0.1250000   0.1443376   0.0000000), wk =   0.0078125
        k(  229) = (  -0.1250000   0.2165064   0.0000000), wk =   0.0078125
        k(  230) = (  -0.1250000   0.2886751   0.0000000), wk =   0.0078125
        k(  231) = (  -0.1250000   0.3608439   0.0000000), wk =   0.0078125
        k(  232) = (  -0.1250000   0.4330127   0.0000000), wk =   0.0078125
        k(  233) = (  -0.1250000  -0.6495191   0.0000000), wk =   0.0078125
        k(  234) = (  -0.1250000  -0.5773503   0.0000000), wk =   0.0078125
        k(  235) = (  -0.1250000  -0.5051815   0.0000000), wk =   0.0078125
        k(  236) = (  -0.1250000  -0.4330127   0.0000000), wk =   0.0078125
        k(  237) = (  -0.1250000  -0.3608439   0.0000000), wk =   0.0078125
        k(  238) = (  -0.1250000  -0.2886751   0.0000000), wk =   0.0078125
        k(  239) = (  -0.1250000  -0.2165064   0.0000000), wk =   0.0078125
        k(  240) = (  -0.1250000  -0.1443376   0.0000000), wk =   0.0078125
        k(  241) = (  -0.0625000  -0.0360844   0.0000000), wk =   0.0078125
        k(  242) = (  -0.0625000   0.0360844   0.0000000), wk =   0.0078125
        k(  243) = (  -0.0625000   0.1082532   0.0000000), wk =   0.0078125
        k(  244) = (  -0.0625000   0.1804220   0.0000000), wk =   0.0078125
        k(  245) = (  -0.0625000   0.2525907   0.0000000), wk =   0.0078125
        k(  246) = (  -0.0625000   0.3247595   0.0000000), wk =   0.0078125
        k(  247) = (  -0.0625000   0.3969283   0.0000000), wk =   0.0078125
        k(  248) = (  -0.0625000   0.4690971   0.0000000), wk =   0.0078125
        k(  249) = (  -0.0625000  -0.6134347   0.0000000), wk =   0.0078125
        k(  250) = (  -0.0625000  -0.5412659   0.0000000), wk =   0.0078125
        k(  251) = (  -0.0625000  -0.4690971   0.0000000), wk =   0.0078125
        k(  252) = (  -0.0625000  -0.3969283   0.0000000), wk =   0.0078125
        k(  253) = (  -0.0625000  -0.3247595   0.0000000), wk =   0.0078125
        k(  254) = (  -0.0625000  -0.2525907   0.0000000), wk =   0.0078125
        k(  255) = (  -0.0625000  -0.1804220   0.0000000), wk =   0.0078125
        k(  256) = (  -0.0625000  -0.1082532   0.0000000), wk =   0.0078125

                       cryst. coord.
        k(    1) = (   0.0000000   0.0000000   0.0000000), wk =   0.0078125
        k(    2) = (   0.0000000   0.0625000   0.0000000), wk =   0.0078125
        k(    3) = (   0.0000000   0.1250000   0.0000000), wk =   0.0078125
        k(    4) = (   0.0000000   0.1875000   0.0000000), wk =   0.0078125
        k(    5) = (   0.0000000   0.2500000   0.0000000), wk =   0.0078125
        k(    6) = (   0.0000000   0.3125000   0.0000000), wk =   0.0078125
        k(    7) = (   0.0000000   0.3750000   0.0000000), wk =   0.0078125
        k(    8) = (   0.0000000   0.4375000   0.0000000), wk =   0.0078125
        k(    9) = (   0.0000000  -0.5000000   0.0000000), wk =   0.0078125
        k(   10) = (   0.0000000  -0.4375000   0.0000000), wk =   0.0078125
        k(   11) = (   0.0000000  -0.3750000   0.0000000), wk =   0.0078125
        k(   12) = (   0.0000000  -0.3125000   0.0000000), wk =   0.0078125
        k(   13) = (   0.0000000  -0.2500000   0.0000000), wk =   0.0078125
        k(   14) = (   0.0000000  -0.1875000   0.0000000), wk =   0.0078125
        k(   15) = (   0.0000000  -0.1250000   0.0000000), wk =   0.0078125
        k(   16) = (   0.0000000  -0.0625000   0.0000000), wk =   0.0078125
        k(   17) = (   0.0625000   0.0000000   0.0000000), wk =   0.0078125
        k(   18) = (   0.0625000   0.0625000   0.0000000), wk =   0.0078125
        k(   19) = (   0.0625000   0.1250000   0.0000000), wk =   0.0078125
        k(   20) = (   0.0625000   0.1875000   0.0000000), wk =   0.0078125
        k(   21) = (   0.0625000   0.2500000   0.0000000), wk =   0.0078125
        k(   22) = (   0.0625000   0.3125000   0.0000000), wk =   0.0078125
        k(   23) = (   0.0625000   0.3750000   0.0000000), wk =   0.0078125
        k(   24) = (   0.0625000   0.4375000   0.0000000), wk =   0.0078125
        k(   25) = (   0.0625000  -0.5000000   0.0000000), wk =   0.0078125
        k(   26) = (   0.0625000  -0.4375000   0.0000000), wk =   0.0078125
        k(   27) = (   0.0625000  -0.3750000   0.0000000), wk =   0.0078125
        k(   28) = (   0.0625000  -0.3125000   0.0000000), wk =   0.0078125
        k(   29) = (   0.0625000  -0.2500000   0.0000000), wk =   0.0078125
        k(   30) = (   0.0625000  -0.1875000   0.0000000), wk =   0.0078125
        k(   31) = (   0.0625000  -0.1250000   0.0000000), wk =   0.0078125
        k(   32) = (   0.0625000  -0.0625000   0.0000000), wk =   0.0078125
        k(   33) = (   0.1250000   0.0000000   0.0000000), wk =   0.0078125
        k(   34) = (   0.1250000   0.0625000   0.0000000), wk =   0.0078125
        k(   35) = (   0.1250000   0.1250000   0.0000000), wk =   0.0078125
        k(   36) = (   0.1250000   0.1875000   0.0000000), wk =   0.0078125
        k(   37) = (   0.1250000   0.2500000   0.0000000), wk =   0.0078125
        k(   38) = (   0.1250000   0.3125000   0.0000000), wk =   0.0078125
        k(   39) = (   0.1250000   0.3750000   0.0000000), wk =   0.0078125
        k(   40) = (   0.1250000   0.4375000   0.0000000), wk =   0.0078125
        k(   41) = (   0.1250000  -0.5000000   0.0000000), wk =   0.0078125
        k(   42) = (   0.1250000  -0.4375000   0.0000000), wk =   0.0078125
        k(   43) = (   0.1250000  -0.3750000   0.0000000), wk =   0.0078125
        k(   44) = (   0.1250000  -0.3125000   0.0000000), wk =   0.0078125
        k(   45) = (   0.1250000  -0.2500000   0.0000000), wk =   0.0078125
        k(   46) = (   0.1250000  -0.1875000   0.0000000), wk =   0.0078125
        k(   47) = (   0.1250000  -0.1250000   0.0000000), wk =   0.0078125
        k(   48) = (   0.1250000  -0.0625000   0.0000000), wk =   0.0078125
        k(   49) = (   0.1875000   0.0000000   0.0000000), wk =   0.0078125
        k(   50) = (   0.1875000   0.0625000   0.0000000), wk =   0.0078125
        k(   51) = (   0.1875000   0.1250000   0.0000000), wk =   0.0078125
        k(   52) = (   0.1875000   0.1875000   0.0000000), wk =   0.0078125
        k(   53) = (   0.1875000   0.2500000   0.0000000), wk =   0.0078125
        k(   54) = (   0.1875000   0.3125000   0.0000000), wk =   0.0078125
        k(   55) = (   0.1875000   0.3750000   0.0000000), wk =   0.0078125
        k(   56) = (   0.1875000   0.4375000   0.0000000), wk =   0.0078125
        k(   57) = (   0.1875000  -0.5000000   0.0000000), wk =   0.0078125
        k(   58) = (   0.1875000  -0.4375000   0.0000000), wk =   0.0078125
        k(   59) = (   0.1875000  -0.3750000   0.0000000), wk =   0.0078125
        k(   60) = (   0.1875000  -0.3125000   0.0000000), wk =   0.0078125
        k(   61) = (   0.1875000  -0.2500000   0.0000000), wk =   0.0078125
        k(   62) = (   0.1875000  -0.1875000   0.0000000), wk =   0.0078125
        k(   63) = (   0.1875000  -0.1250000   0.0000000), wk =   0.0078125
        k(   64) = (   0.1875000  -0.0625000   0.0000000), wk =   0.0078125
        k(   65) = (   0.2500000   0.0000000   0.0000000), wk =   0.0078125
        k(   66) = (   0.2500000   0.0625000   0.0000000), wk =   0.0078125
        k(   67) = (   0.2500000   0.1250000   0.0000000), wk =   0.0078125
        k(   68) = (   0.2500000   0.1875000   0.0000000), wk =   0.0078125
        k(   69) = (   0.2500000   0.2500000   0.0000000), wk =   0.0078125
        k(   70) = (   0.2500000   0.3125000   0.0000000), wk =   0.0078125
        k(   71) = (   0.2500000   0.3750000   0.0000000), wk =   0.0078125
        k(   72) = (   0.2500000   0.4375000   0.0000000), wk =   0.0078125
        k(   73) = (   0.2500000  -0.5000000   0.0000000), wk =   0.0078125
        k(   74) = (   0.2500000  -0.4375000   0.0000000), wk =   0.0078125
        k(   75) = (   0.2500000  -0.3750000   0.0000000), wk =   0.0078125
        k(   76) = (   0.2500000  -0.3125000   0.0000000), wk =   0.0078125
        k(   77) = (   0.2500000  -0.2500000   0.0000000), wk =   0.0078125
        k(   78) = (   0.2500000  -0.1875000   0.0000000), wk =   0.0078125
        k(   79) = (   0.2500000  -0.1250000   0.0000000), wk =   0.0078125
        k(   80) = (   0.2500000  -0.0625000   0.0000000), wk =   0.0078125
        k(   81) = (   0.3125000   0.0000000   0.0000000), wk =   0.0078125
        k(   82) = (   0.3125000   0.0625000   0.0000000), wk =   0.0078125
        k(   83) = (   0.3125000   0.1250000   0.0000000), wk =   0.0078125
        k(   84) = (   0.3125000   0.1875000   0.0000000), wk =   0.0078125
        k(   85) = (   0.3125000   0.2500000   0.0000000), wk =   0.0078125
        k(   86) = (   0.3125000   0.3125000   0.0000000), wk =   0.0078125
        k(   87) = (   0.3125000   0.3750000   0.0000000), wk =   0.0078125
        k(   88) = (   0.3125000   0.4375000   0.0000000), wk =   0.0078125
        k(   89) = (   0.3125000  -0.5000000   0.0000000), wk =   0.0078125
        k(   90) = (   0.3125000  -0.4375000   0.0000000), wk =   0.0078125
        k(   91) = (   0.3125000  -0.3750000   0.0000000), wk =   0.0078125
        k(   92) = (   0.3125000  -0.3125000   0.0000000), wk =   0.0078125
        k(   93) = (   0.3125000  -0.2500000   0.0000000), wk =   0.0078125
        k(   94) = (   0.3125000  -0.1875000   0.0000000), wk =   0.0078125
        k(   95) = (   0.3125000  -0.1250000   0.0000000), wk =   0.0078125
        k(   96) = (   0.3125000  -0.0625000   0.0000000), wk =   0.0078125
        k(   97) = (   0.3750000   0.0000000   0.0000000), wk =   0.0078125
        k(   98) = (   0.3750000   0.0625000   0.0000000), wk =   0.0078125
        k(   99) = (   0.3750000   0.1250000   0.0000000), wk =   0.0078125
        k(  100) = (   0.3750000   0.1875000   0.0000000), wk =   0.0078125
        k(  101) = (   0.3750000   0.2500000   0.0000000), wk =   0.0078125
        k(  102) = (   0.3750000   0.3125000   0.0000000), wk =   0.0078125
        k(  103) = (   0.3750000   0.3750000   0.0000000), wk =   0.0078125
        k(  104) = (   0.3750000   0.4375000   0.0000000), wk =   0.0078125
        k(  105) = (   0.3750000  -0.5000000   0.0000000), wk =   0.0078125
        k(  106) = (   0.3750000  -0.4375000   0.0000000), wk =   0.0078125
        k(  107) = (   0.3750000  -0.3750000   0.0000000), wk =   0.0078125
        k(  108) = (   0.3750000  -0.3125000   0.0000000), wk =   0.0078125
        k(  109) = (   0.3750000  -0.2500000   0.0000000), wk =   0.0078125
        k(  110) = (   0.3750000  -0.1875000   0.0000000), wk =   0.0078125
        k(  111) = (   0.3750000  -0.1250000   0.0000000), wk =   0.0078125
        k(  112) = (   0.3750000  -0.0625000   0.0000000), wk =   0.0078125
        k(  113) = (   0.4375000  -0.0000000   0.0000000), wk =   0.0078125
        k(  114) = (   0.4375000   0.0625000   0.0000000), wk =   0.0078125
        k(  115) = (   0.4375000   0.1250000   0.0000000), wk =   0.0078125
        k(  116) = (   0.4375000   0.1875000   0.0000000), wk =   0.0078125
        k(  117) = (   0.4375000   0.2500000   0.0000000), wk =   0.0078125
        k(  118) = (   0.4375000   0.3125000   0.0000000), wk =   0.0078125
        k(  119) = (   0.4375000   0.3750000   0.0000000), wk =   0.0078125
        k(  120) = (   0.4375000   0.4375000   0.0000000), wk =   0.0078125
        k(  121) = (   0.4375000  -0.5000000   0.0000000), wk =   0.0078125
        k(  122) = (   0.4375000  -0.4375000   0.0000000), wk =   0.0078125
        k(  123) = (   0.4375000  -0.3750000   0.0000000), wk =   0.0078125
        k(  124) = (   0.4375000  -0.3125000   0.0000000), wk =   0.0078125
        k(  125) = (   0.4375000  -0.2500000   0.0000000), wk =   0.0078125
        k(  126) = (   0.4375000  -0.1875000   0.0000000), wk =   0.0078125
        k(  127) = (   0.4375000  -0.1250000   0.0000000), wk =   0.0078125
        k(  128) = (   0.4375000  -0.0625000   0.0000000), wk =   0.0078125
        k(  129) = (  -0.5000000   0.0000000   0.0000000), wk =   0.0078125
        k(  130) = (  -0.5000000   0.0625000   0.0000000), wk =   0.0078125
        k(  131) = (  -0.5000000   0.1250000   0.0000000), wk =   0.0078125
        k(  132) = (  -0.5000000   0.1875000   0.0000000), wk =   0.0078125
        k(  133) = (  -0.5000000   0.2500000   0.0000000), wk =   0.0078125
        k(  134) = (  -0.5000000   0.3125000   0.0000000), wk =   0.0078125
        k(  135) = (  -0.5000000   0.3750000   0.0000000), wk =   0.0078125
        k(  136) = (  -0.5000000   0.4375000   0.0000000), wk =   0.0078125
        k(  137) = (  -0.5000000  -0.5000000   0.0000000), wk =   0.0078125
        k(  138) = (  -0.5000000  -0.4375000   0.0000000), wk =   0.0078125
        k(  139) = (  -0.5000000  -0.3750000   0.0000000), wk =   0.0078125
        k(  140) = (  -0.5000000  -0.3125000   0.0000000), wk =   0.0078125
        k(  141) = (  -0.5000000  -0.2500000   0.0000000), wk =   0.0078125
        k(  142) = (  -0.5000000  -0.1875000   0.0000000), wk =   0.0078125
        k(  143) = (  -0.5000000  -0.1250000   0.0000000), wk =   0.0078125
        k(  144) = (  -0.5000000  -0.0625000   0.0000000), wk =   0.0078125
        k(  145) = (  -0.4375000   0.0000000   0.0000000), wk =   0.0078125
        k(  146) = (  -0.4375000   0.0625000   0.0000000), wk =   0.0078125
        k(  147) = (  -0.4375000   0.1250000   0.0000000), wk =   0.0078125
        k(  148) = (  -0.4375000   0.1875000   0.0000000), wk =   0.0078125
        k(  149) = (  -0.4375000   0.2500000   0.0000000), wk =   0.0078125
        k(  150) = (  -0.4375000   0.3125000   0.0000000), wk =   0.0078125
        k(  151) = (  -0.4375000   0.3750000   0.0000000), wk =   0.0078125
        k(  152) = (  -0.4375000   0.4375000   0.0000000), wk =   0.0078125
        k(  153) = (  -0.4375000  -0.5000000   0.0000000), wk =   0.0078125
        k(  154) = (  -0.4375000  -0.4375000   0.0000000), wk =   0.0078125
        k(  155) = (  -0.4375000  -0.3750000   0.0000000), wk =   0.0078125
        k(  156) = (  -0.4375000  -0.3125000   0.0000000), wk =   0.0078125
        k(  157) = (  -0.4375000  -0.2500000   0.0000000), wk =   0.0078125
        k(  158) = (  -0.4375000  -0.1875000   0.0000000), wk =   0.0078125
        k(  159) = (  -0.4375000  -0.1250000   0.0000000), wk =   0.0078125
        k(  160) = (  -0.4375000  -0.0625000   0.0000000), wk =   0.0078125
        k(  161) = (  -0.3750000   0.0000000   0.0000000), wk =   0.0078125
        k(  162) = (  -0.3750000   0.0625000   0.0000000), wk =   0.0078125
        k(  163) = (  -0.3750000   0.1250000   0.0000000), wk =   0.0078125
        k(  164) = (  -0.3750000   0.1875000   0.0000000), wk =   0.0078125
        k(  165) = (  -0.3750000   0.2500000   0.0000000), wk =   0.0078125
        k(  166) = (  -0.3750000   0.3125000   0.0000000), wk =   0.0078125
        k(  167) = (  -0.3750000   0.3750000   0.0000000), wk =   0.0078125
        k(  168) = (  -0.3750000   0.4375000   0.0000000), wk =   0.0078125
        k(  169) = (  -0.3750000  -0.5000000   0.0000000), wk =   0.0078125
        k(  170) = (  -0.3750000  -0.4375000   0.0000000), wk =   0.0078125
        k(  171) = (  -0.3750000  -0.3750000   0.0000000), wk =   0.0078125
        k(  172) = (  -0.3750000  -0.3125000   0.0000000), wk =   0.0078125
        k(  173) = (  -0.3750000  -0.2500000   0.0000000), wk =   0.0078125
        k(  174) = (  -0.3750000  -0.1875000   0.0000000), wk =   0.0078125
        k(  175) = (  -0.3750000  -0.1250000   0.0000000), wk =   0.0078125
        k(  176) = (  -0.3750000  -0.0625000   0.0000000), wk =   0.0078125
        k(  177) = (  -0.3125000   0.0000000   0.0000000), wk =   0.0078125
        k(  178) = (  -0.3125000   0.0625000   0.0000000), wk =   0.0078125
        k(  179) = (  -0.3125000   0.1250000   0.0000000), wk =   0.0078125
        k(  180) = (  -0.3125000   0.1875000   0.0000000), wk =   0.0078125
        k(  181) = (  -0.3125000   0.2500000   0.0000000), wk =   0.0078125
        k(  182) = (  -0.3125000   0.3125000   0.0000000), wk =   0.0078125
        k(  183) = (  -0.3125000   0.3750000   0.0000000), wk =   0.0078125
        k(  184) = (  -0.3125000   0.4375000   0.0000000), wk =   0.0078125
        k(  185) = (  -0.3125000  -0.5000000   0.0000000), wk =   0.0078125
        k(  186) = (  -0.3125000  -0.4375000   0.0000000), wk =   0.0078125
        k(  187) = (  -0.3125000  -0.3750000   0.0000000), wk =   0.0078125
        k(  188) = (  -0.3125000  -0.3125000   0.0000000), wk =   0.0078125
        k(  189) = (  -0.3125000  -0.2500000   0.0000000), wk =   0.0078125
        k(  190) = (  -0.3125000  -0.1875000   0.0000000), wk =   0.0078125
        k(  191) = (  -0.3125000  -0.1250000   0.0000000), wk =   0.0078125
        k(  192) = (  -0.3125000  -0.0625000   0.0000000), wk =   0.0078125
        k(  193) = (  -0.2500000   0.0000000   0.0000000), wk =   0.0078125
        k(  194) = (  -0.2500000   0.0625000   0.0000000), wk =   0.0078125
        k(  195) = (  -0.2500000   0.1250000   0.0000000), wk =   0.0078125
        k(  196) = (  -0.2500000   0.1875000   0.0000000), wk =   0.0078125
        k(  197) = (  -0.2500000   0.2500000   0.0000000), wk =   0.0078125
        k(  198) = (  -0.2500000   0.3125000   0.0000000), wk =   0.0078125
        k(  199) = (  -0.2500000   0.3750000   0.0000000), wk =   0.0078125
        k(  200) = (  -0.2500000   0.4375000   0.0000000), wk =   0.0078125
        k(  201) = (  -0.2500000  -0.5000000   0.0000000), wk =   0.0078125
        k(  202) = (  -0.2500000  -0.4375000   0.0000000), wk =   0.0078125
        k(  203) = (  -0.2500000  -0.3750000   0.0000000), wk =   0.0078125
        k(  204) = (  -0.2500000  -0.3125000   0.0000000), wk =   0.0078125
        k(  205) = (  -0.2500000  -0.2500000   0.0000000), wk =   0.0078125
        k(  206) = (  -0.2500000  -0.1875000   0.0000000), wk =   0.0078125
        k(  207) = (  -0.2500000  -0.1250000   0.0000000), wk =   0.0078125
        k(  208) = (  -0.2500000  -0.0625000   0.0000000), wk =   0.0078125
        k(  209) = (  -0.1875000   0.0000000   0.0000000), wk =   0.0078125
        k(  210) = (  -0.1875000   0.0625000   0.0000000), wk =   0.0078125
        k(  211) = (  -0.1875000   0.1250000   0.0000000), wk =   0.0078125
        k(  212) = (  -0.1875000   0.1875000   0.0000000), wk =   0.0078125
        k(  213) = (  -0.1875000   0.2500000   0.0000000), wk =   0.0078125
        k(  214) = (  -0.1875000   0.3125000   0.0000000), wk =   0.0078125
        k(  215) = (  -0.1875000   0.3750000   0.0000000), wk =   0.0078125
        k(  216) = (  -0.1875000   0.4375000   0.0000000), wk =   0.0078125
        k(  217) = (  -0.1875000  -0.5000000   0.0000000), wk =   0.0078125
        k(  218) = (  -0.1875000  -0.4375000   0.0000000), wk =   0.0078125
        k(  219) = (  -0.1875000  -0.3750000   0.0000000), wk =   0.0078125
        k(  220) = (  -0.1875000  -0.3125000   0.0000000), wk =   0.0078125
        k(  221) = (  -0.1875000  -0.2500000   0.0000000), wk =   0.0078125
        k(  222) = (  -0.1875000  -0.1875000   0.0000000), wk =   0.0078125
        k(  223) = (  -0.1875000  -0.1250000   0.0000000), wk =   0.0078125
        k(  224) = (  -0.1875000  -0.0625000   0.0000000), wk =   0.0078125
        k(  225) = (  -0.1250000   0.0000000   0.0000000), wk =   0.0078125
        k(  226) = (  -0.1250000   0.0625000   0.0000000), wk =   0.0078125
        k(  227) = (  -0.1250000   0.1250000   0.0000000), wk =   0.0078125
        k(  228) = (  -0.1250000   0.1875000   0.0000000), wk =   0.0078125
        k(  229) = (  -0.1250000   0.2500000   0.0000000), wk =   0.0078125
        k(  230) = (  -0.1250000   0.3125000   0.0000000), wk =   0.0078125
        k(  231) = (  -0.1250000   0.3750000   0.0000000), wk =   0.0078125
        k(  232) = (  -0.1250000   0.4375000   0.0000000), wk =   0.0078125
        k(  233) = (  -0.1250000  -0.5000000   0.0000000), wk =   0.0078125
        k(  234) = (  -0.1250000  -0.4375000   0.0000000), wk =   0.0078125
        k(  235) = (  -0.1250000  -0.3750000   0.0000000), wk =   0.0078125
        k(  236) = (  -0.1250000  -0.3125000   0.0000000), wk =   0.0078125
        k(  237) = (  -0.1250000  -0.2500000   0.0000000), wk =   0.0078125
        k(  238) = (  -0.1250000  -0.1875000   0.0000000), wk =   0.0078125
        k(  239) = (  -0.1250000  -0.1250000   0.0000000), wk =   0.0078125
        k(  240) = (  -0.1250000  -0.0625000   0.0000000), wk =   0.0078125
        k(  241) = (  -0.0625000   0.0000000   0.0000000), wk =   0.0078125
        k(  242) = (  -0.0625000   0.0625000   0.0000000), wk =   0.0078125
        k(  243) = (  -0.0625000   0.1250000   0.0000000), wk =   0.0078125
        k(  244) = (  -0.0625000   0.1875000   0.0000000), wk =   0.0078125
        k(  245) = (  -0.0625000   0.2500000   0.0000000), wk =   0.0078125
        k(  246) = (  -0.0625000   0.3125000   0.0000000), wk =   0.0078125
        k(  247) = (  -0.0625000   0.3750000   0.0000000), wk =   0.0078125
        k(  248) = (  -0.0625000   0.4375000   0.0000000), wk =   0.0078125
        k(  249) = (  -0.0625000  -0.5000000   0.0000000), wk =   0.0078125
        k(  250) = (  -0.0625000  -0.4375000   0.0000000), wk =   0.0078125
        k(  251) = (  -0.0625000  -0.3750000   0.0000000), wk =   0.0078125
        k(  252) = (  -0.0625000  -0.3125000   0.0000000), wk =   0.0078125
        k(  253) = (  -0.0625000  -0.2500000   0.0000000), wk =   0.0078125
        k(  254) = (  -0.0625000  -0.1875000   0.0000000), wk =   0.0078125
        k(  255) = (  -0.0625000  -0.1250000   0.0000000), wk =   0.0078125
        k(  256) = (  -0.0625000  -0.0625000   0.0000000), wk =   0.0078125

     Dense  grid:    44285 G-vectors     FFT dimensions: (  24,  24, 192)

     Dynamical RAM for                 wfc:       0.17 MB

     Dynamical RAM for     wfc (w. buffer):       0.17 MB

     Dynamical RAM for           str. fact:       0.08 MB

     Dynamical RAM for           local pot:       0.00 MB

     Dynamical RAM for          nlocal pot:       0.34 MB

     Dynamical RAM for                qrad:       0.36 MB

     Dynamical RAM for          rho,v,vnew:       0.57 MB

     Dynamical RAM for           G-vectors:       0.36 MB

     Dynamical RAM for          h,s,v(r/c):       0.01 MB

     Dynamical RAM for          <psi|beta>:       0.01 MB

     Dynamical RAM for                 psi:       0.34 MB

     Dynamical RAM for                hpsi:       0.34 MB

     Dynamical RAM for      wfcinit/wfcrot:       0.34 MB

     Estimated static dynamical RAM per process >       2.57 MB

     Estimated max dynamical RAM per process >       3.26 MB

     Estimated total dynamical RAM >      26.10 MB

     The potential is recalculated from file :
     ./tmp/C2L_AB_PBE_vdW.save/charge-density



     %%%%%%%%%%%%%%%%%%%%%%%%%%%%%%%%%%%%%%%%%%%%%%%%%%%%%%%%%%%%%%%%%%%%%%%%
     %                                                                      %
     % You are using vdW-DF, which was implemented by the Thonhauser group. %
     % Please cite the following two papers that made this development      %
     % possible and the two reviews that describe the various versions:     %
     %                                                                      %
     %   T. Thonhauser et al., PRL 115, 136402 (2015).                      %
     %   T. Thonhauser et al., PRB 76, 125112 (2007).                       %
     %   K. Berland et al., Rep. Prog. Phys. 78, 066501 (2015).             %
     %   D.C. Langreth et al., J. Phys.: Condens. Matter 21, 084203 (2009). %
     %                                                                      %
     %                                                                      %
     % If you are calculating the stress with vdW-DF, please also cite:     %
     %                                                                      %
     %   R. Sabatini et al., J. Phys.: Condens. Matter 24, 424209 (2012).   %
     %                                                                      %
     %%%%%%%%%%%%%%%%%%%%%%%%%%%%%%%%%%%%%%%%%%%%%%%%%%%%%%%%%%%%%%%%%%%%%%%%


     Carrying out vdW-DF run using the following parameters:
     Nqs    =  20  Npoints =  1024  r_max =  100.000
     q_mesh =  0.00001000  0.04494208  0.09755937  0.15916263
               0.23128650  0.31572767  0.41458969  0.53033537
               0.66584808  0.82450364  1.01025438  1.22772762
               1.48234092  1.78043706  2.12944203  2.53805004
               3.01644009  3.57652955  4.23227104  5.00000000


     -----------------------------------------------
     Non-local corr. energy    =       0.19408782 Ry
     -----------------------------------------------

     Starting wfcs are   16 randomized atomic wfcs

     Band Structure Calculation
     Davidson diagonalization with overlap

     Computing kpt #:     1  of   256
     total cpu time spent up to now is        9.4 secs

     Computing kpt #:     2  of   256
     total cpu time spent up to now is        9.6 secs

     Computing kpt #:     3  of   256
     total cpu time spent up to now is        9.8 secs

     Computing kpt #:     4  of   256
     total cpu time spent up to now is       10.0 secs

     Computing kpt #:     5  of   256
     total cpu time spent up to now is       10.2 secs

     Computing kpt #:     6  of   256
     total cpu time spent up to now is       10.4 secs

     Computing kpt #:     7  of   256
     total cpu time spent up to now is       10.7 secs

     Computing kpt #:     8  of   256
     total cpu time spent up to now is       10.8 secs

     Computing kpt #:     9  of   256
     total cpu time spent up to now is       11.0 secs

     Computing kpt #:    10  of   256
     total cpu time spent up to now is       11.2 secs

     Computing kpt #:    11  of   256
     total cpu time spent up to now is       11.4 secs

     Computing kpt #:    12  of   256
     total cpu time spent up to now is       11.6 secs

     Computing kpt #:    13  of   256
     total cpu time spent up to now is       11.9 secs

     Computing kpt #:    14  of   256
     total cpu time spent up to now is       12.0 secs

     Computing kpt #:    15  of   256
     total cpu time spent up to now is       12.2 secs

     Computing kpt #:    16  of   256
     total cpu time spent up to now is       12.4 secs

     Computing kpt #:    17  of   256
     total cpu time spent up to now is       12.7 secs

     Computing kpt #:    18  of   256
     total cpu time spent up to now is       12.9 secs

     Computing kpt #:    19  of   256
     total cpu time spent up to now is       13.1 secs

     Computing kpt #:    20  of   256
     total cpu time spent up to now is       13.3 secs

     Computing kpt #:    21  of   256
     total cpu time spent up to now is       13.5 secs

     Computing kpt #:    22  of   256
     total cpu time spent up to now is       13.7 secs

     Computing kpt #:    23  of   256
     total cpu time spent up to now is       13.9 secs

     Computing kpt #:    24  of   256
     total cpu time spent up to now is       14.1 secs

     Computing kpt #:    25  of   256
     total cpu time spent up to now is       14.3 secs

     Computing kpt #:    26  of   256
     total cpu time spent up to now is       14.5 secs

     Computing kpt #:    27  of   256
     total cpu time spent up to now is       14.6 secs

     Computing kpt #:    28  of   256
     total cpu time spent up to now is       14.8 secs

     Computing kpt #:    29  of   256
     total cpu time spent up to now is       15.0 secs

     Computing kpt #:    30  of   256
     total cpu time spent up to now is       15.2 secs

     Computing kpt #:    31  of   256
     total cpu time spent up to now is       15.4 secs

     Computing kpt #:    32  of   256
     total cpu time spent up to now is       15.7 secs

     Computing kpt #:    33  of   256
     total cpu time spent up to now is       15.8 secs

     Computing kpt #:    34  of   256
     total cpu time spent up to now is       16.1 secs

     Computing kpt #:    35  of   256
     total cpu time spent up to now is       16.3 secs

     Computing kpt #:    36  of   256
     total cpu time spent up to now is       16.5 secs

     Computing kpt #:    37  of   256
     total cpu time spent up to now is       16.7 secs

     Computing kpt #:    38  of   256
     total cpu time spent up to now is       16.8 secs

     Computing kpt #:    39  of   256
     total cpu time spent up to now is       17.0 secs

     Computing kpt #:    40  of   256
     total cpu time spent up to now is       17.2 secs

     Computing kpt #:    41  of   256
     total cpu time spent up to now is       17.4 secs

     Computing kpt #:    42  of   256
     total cpu time spent up to now is       17.5 secs

     Computing kpt #:    43  of   256
     total cpu time spent up to now is       17.7 secs

     Computing kpt #:    44  of   256
     total cpu time spent up to now is       17.9 secs

     Computing kpt #:    45  of   256
     total cpu time spent up to now is       18.1 secs

     Computing kpt #:    46  of   256
     total cpu time spent up to now is       18.3 secs

     Computing kpt #:    47  of   256
     total cpu time spent up to now is       18.5 secs

     Computing kpt #:    48  of   256
     total cpu time spent up to now is       18.7 secs

     Computing kpt #:    49  of   256
     total cpu time spent up to now is       19.0 secs

     Computing kpt #:    50  of   256
     total cpu time spent up to now is       19.2 secs

     Computing kpt #:    51  of   256
     total cpu time spent up to now is       19.4 secs

     Computing kpt #:    52  of   256
     total cpu time spent up to now is       19.6 secs

     Computing kpt #:    53  of   256
     total cpu time spent up to now is       19.8 secs

     Computing kpt #:    54  of   256
     total cpu time spent up to now is       20.0 secs

     Computing kpt #:    55  of   256
     total cpu time spent up to now is       20.1 secs

     Computing kpt #:    56  of   256
     total cpu time spent up to now is       20.3 secs

     Computing kpt #:    57  of   256
     total cpu time spent up to now is       20.5 secs

     Computing kpt #:    58  of   256
     total cpu time spent up to now is       20.7 secs

     Computing kpt #:    59  of   256
     total cpu time spent up to now is       20.9 secs

     Computing kpt #:    60  of   256
     total cpu time spent up to now is       21.0 secs

     Computing kpt #:    61  of   256
     total cpu time spent up to now is       21.2 secs

     Computing kpt #:    62  of   256
     total cpu time spent up to now is       21.4 secs

     Computing kpt #:    63  of   256
     total cpu time spent up to now is       21.6 secs

     Computing kpt #:    64  of   256
     total cpu time spent up to now is       21.8 secs

     Computing kpt #:    65  of   256
     total cpu time spent up to now is       22.1 secs

     Computing kpt #:    66  of   256
     total cpu time spent up to now is       22.3 secs

     Computing kpt #:    67  of   256
     total cpu time spent up to now is       22.4 secs

     Computing kpt #:    68  of   256
     total cpu time spent up to now is       22.6 secs

     Computing kpt #:    69  of   256
     total cpu time spent up to now is       22.9 secs

     Computing kpt #:    70  of   256
     total cpu time spent up to now is       23.1 secs

     Computing kpt #:    71  of   256
     total cpu time spent up to now is       23.3 secs

     Computing kpt #:    72  of   256
     total cpu time spent up to now is       23.5 secs

     Computing kpt #:    73  of   256
     total cpu time spent up to now is       23.8 secs

     Computing kpt #:    74  of   256
     total cpu time spent up to now is       24.1 secs

     Computing kpt #:    75  of   256
     total cpu time spent up to now is       24.3 secs

     Computing kpt #:    76  of   256
     total cpu time spent up to now is       24.5 secs

     Computing kpt #:    77  of   256
     total cpu time spent up to now is       24.7 secs

     Computing kpt #:    78  of   256
     total cpu time spent up to now is       24.9 secs

     Computing kpt #:    79  of   256
     total cpu time spent up to now is       25.1 secs

     Computing kpt #:    80  of   256
     total cpu time spent up to now is       25.3 secs

     Computing kpt #:    81  of   256
     total cpu time spent up to now is       25.5 secs

     Computing kpt #:    82  of   256
     total cpu time spent up to now is       25.7 secs

     Computing kpt #:    83  of   256
     total cpu time spent up to now is       25.8 secs

     Computing kpt #:    84  of   256
     total cpu time spent up to now is       26.0 secs

     Computing kpt #:    85  of   256
     total cpu time spent up to now is       26.2 secs

     Computing kpt #:    86  of   256
     total cpu time spent up to now is       26.4 secs

     Computing kpt #:    87  of   256
     total cpu time spent up to now is       26.6 secs

     Computing kpt #:    88  of   256
     total cpu time spent up to now is       26.8 secs

     Computing kpt #:    89  of   256
     total cpu time spent up to now is       27.0 secs

     Computing kpt #:    90  of   256
     total cpu time spent up to now is       27.1 secs

     Computing kpt #:    91  of   256
     total cpu time spent up to now is       27.3 secs

     Computing kpt #:    92  of   256
     total cpu time spent up to now is       27.5 secs

     Computing kpt #:    93  of   256
     total cpu time spent up to now is       27.7 secs

     Computing kpt #:    94  of   256
     total cpu time spent up to now is       27.9 secs

     Computing kpt #:    95  of   256
     total cpu time spent up to now is       28.0 secs

     Computing kpt #:    96  of   256
     total cpu time spent up to now is       28.2 secs

     Computing kpt #:    97  of   256
     total cpu time spent up to now is       28.4 secs

     Computing kpt #:    98  of   256
     total cpu time spent up to now is       28.5 secs

     Computing kpt #:    99  of   256
     total cpu time spent up to now is       28.7 secs

     Computing kpt #:   100  of   256
     total cpu time spent up to now is       28.8 secs

     Computing kpt #:   101  of   256
     total cpu time spent up to now is       29.0 secs

     Computing kpt #:   102  of   256
     total cpu time spent up to now is       29.1 secs

     Computing kpt #:   103  of   256
     total cpu time spent up to now is       29.3 secs

     Computing kpt #:   104  of   256
     total cpu time spent up to now is       29.4 secs

     Computing kpt #:   105  of   256
     total cpu time spent up to now is       29.6 secs

     Computing kpt #:   106  of   256
     total cpu time spent up to now is       29.7 secs

     Computing kpt #:   107  of   256
     total cpu time spent up to now is       29.9 secs

     Computing kpt #:   108  of   256
     total cpu time spent up to now is       30.1 secs

     Computing kpt #:   109  of   256
     total cpu time spent up to now is       30.3 secs

     Computing kpt #:   110  of   256
     total cpu time spent up to now is       30.5 secs

     Computing kpt #:   111  of   256
     total cpu time spent up to now is       30.7 secs

     Computing kpt #:   112  of   256
     total cpu time spent up to now is       30.9 secs

     Computing kpt #:   113  of   256
     total cpu time spent up to now is       31.1 secs

     Computing kpt #:   114  of   256
     total cpu time spent up to now is       31.2 secs

     Computing kpt #:   115  of   256
     total cpu time spent up to now is       31.4 secs

     Computing kpt #:   116  of   256
     total cpu time spent up to now is       31.5 secs

     Computing kpt #:   117  of   256
     total cpu time spent up to now is       31.7 secs

     Computing kpt #:   118  of   256
     total cpu time spent up to now is       32.0 secs

     Computing kpt #:   119  of   256
     total cpu time spent up to now is       32.1 secs

     Computing kpt #:   120  of   256
     total cpu time spent up to now is       32.3 secs

     Computing kpt #:   121  of   256
     total cpu time spent up to now is       32.4 secs

     Computing kpt #:   122  of   256
     total cpu time spent up to now is       32.6 secs

     Computing kpt #:   123  of   256
     total cpu time spent up to now is       32.8 secs

     Computing kpt #:   124  of   256
     total cpu time spent up to now is       33.0 secs

     Computing kpt #:   125  of   256
     total cpu time spent up to now is       33.1 secs

     Computing kpt #:   126  of   256
     total cpu time spent up to now is       33.4 secs

     Computing kpt #:   127  of   256
     total cpu time spent up to now is       33.5 secs

     Computing kpt #:   128  of   256
     total cpu time spent up to now is       33.7 secs

     Computing kpt #:   129  of   256
     total cpu time spent up to now is       33.8 secs

     Computing kpt #:   130  of   256
     total cpu time spent up to now is       34.0 secs

     Computing kpt #:   131  of   256
     total cpu time spent up to now is       34.2 secs

     Computing kpt #:   132  of   256
     total cpu time spent up to now is       34.4 secs

     Computing kpt #:   133  of   256
     total cpu time spent up to now is       34.6 secs

     Computing kpt #:   134  of   256
     total cpu time spent up to now is       34.8 secs

     Computing kpt #:   135  of   256
     total cpu time spent up to now is       34.9 secs

     Computing kpt #:   136  of   256
     total cpu time spent up to now is       35.1 secs

     Computing kpt #:   137  of   256
     total cpu time spent up to now is       35.3 secs

     Computing kpt #:   138  of   256
     total cpu time spent up to now is       35.4 secs

     Computing kpt #:   139  of   256
     total cpu time spent up to now is       35.6 secs

     Computing kpt #:   140  of   256
     total cpu time spent up to now is       35.8 secs

     Computing kpt #:   141  of   256
     total cpu time spent up to now is       36.0 secs

     Computing kpt #:   142  of   256
     total cpu time spent up to now is       36.2 secs

     Computing kpt #:   143  of   256
     total cpu time spent up to now is       36.4 secs

     Computing kpt #:   144  of   256
     total cpu time spent up to now is       36.5 secs

     Computing kpt #:   145  of   256
     total cpu time spent up to now is       36.7 secs

     Computing kpt #:   146  of   256
     total cpu time spent up to now is       36.9 secs

     Computing kpt #:   147  of   256
     total cpu time spent up to now is       37.0 secs

     Computing kpt #:   148  of   256
     total cpu time spent up to now is       37.2 secs

     Computing kpt #:   149  of   256
     total cpu time spent up to now is       37.4 secs

     Computing kpt #:   150  of   256
     total cpu time spent up to now is       37.6 secs

     Computing kpt #:   151  of   256
     total cpu time spent up to now is       37.7 secs

     Computing kpt #:   152  of   256
     total cpu time spent up to now is       37.9 secs

     Computing kpt #:   153  of   256
     total cpu time spent up to now is       38.0 secs

     Computing kpt #:   154  of   256
     total cpu time spent up to now is       38.2 secs

     Computing kpt #:   155  of   256
     total cpu time spent up to now is       38.3 secs

     Computing kpt #:   156  of   256
     total cpu time spent up to now is       38.6 secs

     Computing kpt #:   157  of   256
     total cpu time spent up to now is       38.8 secs

     Computing kpt #:   158  of   256
     total cpu time spent up to now is       38.9 secs

     Computing kpt #:   159  of   256
     total cpu time spent up to now is       39.0 secs

     Computing kpt #:   160  of   256
     total cpu time spent up to now is       39.2 secs

     Computing kpt #:   161  of   256
     total cpu time spent up to now is       39.4 secs

     Computing kpt #:   162  of   256
     total cpu time spent up to now is       39.6 secs

     Computing kpt #:   163  of   256
     total cpu time spent up to now is       39.8 secs

     Computing kpt #:   164  of   256
     total cpu time spent up to now is       40.0 secs

     Computing kpt #:   165  of   256
     total cpu time spent up to now is       40.2 secs

     Computing kpt #:   166  of   256
     total cpu time spent up to now is       40.4 secs

     Computing kpt #:   167  of   256
     total cpu time spent up to now is       40.6 secs

     Computing kpt #:   168  of   256
     total cpu time spent up to now is       40.7 secs

     Computing kpt #:   169  of   256
     total cpu time spent up to now is       40.9 secs

     Computing kpt #:   170  of   256
     total cpu time spent up to now is       41.1 secs

     Computing kpt #:   171  of   256
     total cpu time spent up to now is       41.3 secs

     Computing kpt #:   172  of   256
     total cpu time spent up to now is       41.5 secs

     Computing kpt #:   173  of   256
     total cpu time spent up to now is       41.6 secs

     Computing kpt #:   174  of   256
     total cpu time spent up to now is       41.8 secs

     Computing kpt #:   175  of   256
     total cpu time spent up to now is       42.0 secs

     Computing kpt #:   176  of   256
     total cpu time spent up to now is       42.1 secs

     Computing kpt #:   177  of   256
     total cpu time spent up to now is       42.2 secs

     Computing kpt #:   178  of   256
     total cpu time spent up to now is       42.4 secs

     Computing kpt #:   179  of   256
     total cpu time spent up to now is       42.6 secs

     Computing kpt #:   180  of   256
     total cpu time spent up to now is       42.8 secs

     Computing kpt #:   181  of   256
     total cpu time spent up to now is       43.0 secs

     Computing kpt #:   182  of   256
     total cpu time spent up to now is       43.2 secs

     Computing kpt #:   183  of   256
     total cpu time spent up to now is       43.4 secs

     Computing kpt #:   184  of   256
     total cpu time spent up to now is       43.6 secs

     Computing kpt #:   185  of   256
     total cpu time spent up to now is       43.7 secs

     Computing kpt #:   186  of   256
     total cpu time spent up to now is       43.9 secs

     Computing kpt #:   187  of   256
     total cpu time spent up to now is       44.0 secs

     Computing kpt #:   188  of   256
     total cpu time spent up to now is       44.2 secs

     Computing kpt #:   189  of   256
     total cpu time spent up to now is       44.4 secs

     Computing kpt #:   190  of   256
     total cpu time spent up to now is       44.6 secs

     Computing kpt #:   191  of   256
     total cpu time spent up to now is       44.8 secs

     Computing kpt #:   192  of   256
     total cpu time spent up to now is       44.9 secs

     Computing kpt #:   193  of   256
     total cpu time spent up to now is       45.1 secs

     Computing kpt #:   194  of   256
     total cpu time spent up to now is       45.4 secs

     Computing kpt #:   195  of   256
     total cpu time spent up to now is       45.5 secs

     Computing kpt #:   196  of   256
     total cpu time spent up to now is       45.7 secs

     Computing kpt #:   197  of   256
     total cpu time spent up to now is       45.9 secs

     Computing kpt #:   198  of   256
     total cpu time spent up to now is       46.1 secs

     Computing kpt #:   199  of   256
     total cpu time spent up to now is       46.4 secs

     Computing kpt #:   200  of   256
     total cpu time spent up to now is       46.6 secs

     Computing kpt #:   201  of   256
     total cpu time spent up to now is       46.8 secs

     Computing kpt #:   202  of   256
     total cpu time spent up to now is       47.1 secs

     Computing kpt #:   203  of   256
     total cpu time spent up to now is       47.2 secs

     Computing kpt #:   204  of   256
     total cpu time spent up to now is       47.5 secs

     Computing kpt #:   205  of   256
     total cpu time spent up to now is       47.7 secs

     Computing kpt #:   206  of   256
     total cpu time spent up to now is       47.9 secs

     Computing kpt #:   207  of   256
     total cpu time spent up to now is       48.1 secs

     Computing kpt #:   208  of   256
     total cpu time spent up to now is       48.3 secs

     Computing kpt #:   209  of   256
     total cpu time spent up to now is       48.5 secs

     Computing kpt #:   210  of   256
     total cpu time spent up to now is       48.7 secs

     Computing kpt #:   211  of   256
     total cpu time spent up to now is       48.8 secs

     Computing kpt #:   212  of   256
     total cpu time spent up to now is       49.0 secs

     Computing kpt #:   213  of   256
     total cpu time spent up to now is       49.2 secs

     Computing kpt #:   214  of   256
     total cpu time spent up to now is       49.4 secs

     Computing kpt #:   215  of   256
     total cpu time spent up to now is       49.6 secs

     Computing kpt #:   216  of   256
     total cpu time spent up to now is       49.8 secs

     Computing kpt #:   217  of   256
     total cpu time spent up to now is       50.0 secs

     Computing kpt #:   218  of   256
     total cpu time spent up to now is       50.1 secs

     Computing kpt #:   219  of   256
     total cpu time spent up to now is       50.3 secs

     Computing kpt #:   220  of   256
     total cpu time spent up to now is       50.4 secs

     Computing kpt #:   221  of   256
     total cpu time spent up to now is       50.7 secs

     Computing kpt #:   222  of   256
     total cpu time spent up to now is       50.8 secs

     Computing kpt #:   223  of   256
     total cpu time spent up to now is       51.0 secs

     Computing kpt #:   224  of   256
     total cpu time spent up to now is       51.2 secs

     Computing kpt #:   225  of   256
     total cpu time spent up to now is       51.4 secs

     Computing kpt #:   226  of   256
     total cpu time spent up to now is       51.6 secs

     Computing kpt #:   227  of   256
     total cpu time spent up to now is       51.8 secs

     Computing kpt #:   228  of   256
     total cpu time spent up to now is       51.9 secs

     Computing kpt #:   229  of   256
     total cpu time spent up to now is       52.1 secs

     Computing kpt #:   230  of   256
     total cpu time spent up to now is       52.3 secs

     Computing kpt #:   231  of   256
     total cpu time spent up to now is       52.5 secs

     Computing kpt #:   232  of   256
     total cpu time spent up to now is       52.6 secs

     Computing kpt #:   233  of   256
     total cpu time spent up to now is       52.8 secs

     Computing kpt #:   234  of   256
     total cpu time spent up to now is       52.9 secs

     Computing kpt #:   235  of   256
     total cpu time spent up to now is       53.1 secs

     Computing kpt #:   236  of   256
     total cpu time spent up to now is       53.3 secs

     Computing kpt #:   237  of   256
     total cpu time spent up to now is       53.5 secs

     Computing kpt #:   238  of   256
     total cpu time spent up to now is       53.7 secs

     Computing kpt #:   239  of   256
     total cpu time spent up to now is       53.9 secs

     Computing kpt #:   240  of   256
     total cpu time spent up to now is       54.1 secs

     Computing kpt #:   241  of   256
     total cpu time spent up to now is       54.3 secs

     Computing kpt #:   242  of   256
     total cpu time spent up to now is       54.6 secs

     Computing kpt #:   243  of   256
     total cpu time spent up to now is       54.8 secs

     Computing kpt #:   244  of   256
     total cpu time spent up to now is       55.0 secs

     Computing kpt #:   245  of   256
     total cpu time spent up to now is       55.2 secs

     Computing kpt #:   246  of   256
     total cpu time spent up to now is       55.4 secs

     Computing kpt #:   247  of   256
     total cpu time spent up to now is       55.6 secs

     Computing kpt #:   248  of   256
     total cpu time spent up to now is       55.7 secs

     Computing kpt #:   249  of   256
     total cpu time spent up to now is       55.9 secs

     Computing kpt #:   250  of   256
     total cpu time spent up to now is       56.1 secs

     Computing kpt #:   251  of   256
     total cpu time spent up to now is       56.2 secs

     Computing kpt #:   252  of   256
     total cpu time spent up to now is       56.4 secs

     Computing kpt #:   253  of   256
     total cpu time spent up to now is       56.6 secs

     Computing kpt #:   254  of   256
     total cpu time spent up to now is       56.8 secs

     Computing kpt #:   255  of   256
     total cpu time spent up to now is       57.0 secs

     Computing kpt #:   256  of   256
     total cpu time spent up to now is       57.2 secs

     ethr =  5.00E-06,  avg # of iterations = 26.5

     total cpu time spent up to now is       57.2 secs

     End of band structure calculation

          k = 0.0000 0.0000 0.0000 (  5505 PWs)   bands (ev):

   -20.1554 -19.9824  -8.7256  -7.6499  -3.6388  -3.6387  -3.6280  -3.6280
     2.5620   2.9839   4.0502   5.1877   5.6433   7.4775   7.8231   7.8232

     occupation numbers 
     1.0000   1.0000   1.0000   1.0000   1.0000   1.0000   1.0000   1.0000
     0.0000   0.0000   0.0000   0.0000   0.0000   0.0000   0.0000   0.0000

          k = 0.0000 0.0722 0.0000 (  5522 PWs)   bands (ev):

   -20.0629 -19.8909  -8.6130  -7.5413  -4.0164  -4.0004  -3.8370  -3.8229
     2.6858   3.1088   4.1775   5.3140   5.7613   7.5877   7.8584   7.9134

     occupation numbers 
     1.0000   1.0000   1.0000   1.0000   1.0000   1.0000   1.0000   1.0000
     0.0000   0.0000   0.0000   0.0000   0.0000   0.0000   0.0000   0.0000

          k = 0.0000 0.1443 0.0000 (  5522 PWs)   bands (ev):

   -19.7861 -19.6169  -8.2781  -7.2180  -5.0274  -4.9988  -4.3447  -4.3252
     3.0572   3.4829   4.5594   5.6927   6.1144   7.8492   7.8786   8.0266

     occupation numbers 
     1.0000   1.0000   1.0000   1.0000   1.0000   1.0000   1.0000   1.0000
     0.0000   0.0000   0.0000   0.0000   0.0000   0.0000   0.0000   0.0000

          k = 0.0000 0.2165 0.0000 (  5522 PWs)   bands (ev):

   -19.3265 -19.1622  -7.7252  -6.6859  -6.4369  -6.3939  -4.9976  -4.9736
     3.6757   4.1043   5.1956   6.3217   6.6921   7.7146   7.8358   8.1656

     occupation numbers 
     1.0000   1.0000   1.0000   1.0000   1.0000   1.0000   1.0000   1.0000
     0.0000   0.0000   0.0000   0.0000   0.0000   0.0000   0.0000   0.0000

          k = 0.0000 0.2887 0.0000 (  5500 PWs)   bands (ev):

   -18.6872 -18.5297  -8.0408  -7.9823  -6.9634  -5.9562  -5.6543  -5.6275
     4.5390   4.9609   6.0843   6.4843   6.8004   7.2026   7.4181   7.5192

     occupation numbers 
     1.0000   1.0000   1.0000   1.0000   1.0000   1.0000   1.0000   1.0000
     0.0000   0.0000   0.0000   0.0000   0.0000   0.0000   0.0000   0.0000

          k = 0.0000 0.3608 0.0000 (  5528 PWs)   bands (ev):

   -17.8747 -17.7254  -9.6996  -9.6272  -6.2272  -6.1981  -6.0131  -5.0578
     4.6580   5.1423   5.6484   6.1269   7.1683   7.2328   7.3956   8.3553

     occupation numbers 
     1.0000   1.0000   1.0000   1.0000   1.0000   1.0000   1.0000   1.0000
     0.0000   0.0000   0.0000   0.0000   0.0000   0.0000   0.0000   0.0000

          k = 0.0000 0.4330 0.0000 (  5528 PWs)   bands (ev):

   -16.8981 -16.7593 -11.3239 -11.2376  -6.6633  -6.6331  -4.9178  -4.0502
     2.9363   3.4934   6.8921   7.0033   7.2141   7.4857   8.6321   9.7324

     occupation numbers 
     1.0000   1.0000   1.0000   1.0000   1.0000   1.0000   1.0000   1.0000
     0.0000   0.0000   0.0000   0.0000   0.0000   0.0000   0.0000   0.0000

          k = 0.0000 0.5052 0.0000 (  5550 PWs)   bands (ev):

   -15.7871 -15.6627 -12.8360 -12.7398  -6.9346  -6.9040  -3.8024  -3.1258
     1.5135   2.0458   6.8058   7.0279   8.5801   9.0545  10.2674  11.2512

     occupation numbers 
     1.0000   1.0000   1.0000   1.0000   1.0000   1.0000   1.0000   1.0000
     0.0000   0.0000   0.0000   0.0000   0.0000   0.0000   0.0000   0.0000

          k = 0.0000-0.5774 0.0000 (  5540 PWs)   bands (ev):

   -14.8841 -14.8187 -13.8229 -13.7734  -7.0265  -6.9956  -3.1589  -2.7607
     0.9424   1.3242   6.7564   6.9844  10.3080  10.3854  10.7997  10.8683

     occupation numbers 
     1.0000   1.0000   1.0000   1.0000   1.0000   1.0000   1.0000   1.0000
     0.0000   0.0000   0.0000   0.0000   0.0000   0.0000   0.0000   0.0000

          k = 0.0000-0.5052 0.0000 (  5550 PWs)   bands (ev):

   -15.7871 -15.6627 -12.8360 -12.7398  -6.9346  -6.9040  -3.8024  -3.1258
     1.5135   2.0458   6.8058   7.0279   8.5801   9.0545  10.2674  11.2503

     occupation numbers 
     1.0000   1.0000   1.0000   1.0000   1.0000   1.0000   1.0000   1.0000
     0.0000   0.0000   0.0000   0.0000   0.0000   0.0000   0.0000   0.0000

          k = 0.0000-0.4330 0.0000 (  5528 PWs)   bands (ev):

   -16.8981 -16.7593 -11.3239 -11.2376  -6.6633  -6.6331  -4.9178  -4.0502
     2.9363   3.4934   6.8921   7.0033   7.2141   7.4857   8.6321   9.7331

     occupation numbers 
     1.0000   1.0000   1.0000   1.0000   1.0000   1.0000   1.0000   1.0000
     0.0000   0.0000   0.0000   0.0000   0.0000   0.0000   0.0000   0.0000

          k = 0.0000-0.3608 0.0000 (  5528 PWs)   bands (ev):

   -17.8747 -17.7254  -9.6996  -9.6272  -6.2272  -6.1981  -6.0131  -5.0578
     4.6580   5.1423   5.6484   6.1269   7.1683   7.2328   7.3956   8.3554

     occupation numbers 
     1.0000   1.0000   1.0000   1.0000   1.0000   1.0000   1.0000   1.0000
     0.0000   0.0000   0.0000   0.0000   0.0000   0.0000   0.0000   0.0000

          k = 0.0000-0.2887 0.0000 (  5500 PWs)   bands (ev):

   -18.6872 -18.5297  -8.0408  -7.9823  -6.9634  -5.9562  -5.6543  -5.6275
     4.5390   4.9609   6.0843   6.4843   6.8004   7.2027   7.4181   7.5193

     occupation numbers 
     1.0000   1.0000   1.0000   1.0000   1.0000   1.0000   1.0000   1.0000
     0.0000   0.0000   0.0000   0.0000   0.0000   0.0000   0.0000   0.0000

          k = 0.0000-0.2165 0.0000 (  5522 PWs)   bands (ev):

   -19.3265 -19.1622  -7.7252  -6.6859  -6.4369  -6.3939  -4.9976  -4.9736
     3.6757   4.1043   5.1957   6.3217   6.6920   7.7146   7.8358   8.1654

     occupation numbers 
     1.0000   1.0000   1.0000   1.0000   1.0000   1.0000   1.0000   1.0000
     0.0000   0.0000   0.0000   0.0000   0.0000   0.0000   0.0000   0.0000

          k = 0.0000-0.1443 0.0000 (  5522 PWs)   bands (ev):

   -19.7861 -19.6169  -8.2781  -7.2180  -5.0274  -4.9988  -4.3447  -4.3252
     3.0572   3.4829   4.5594   5.6927   6.1144   7.8487   7.8784   8.0264

     occupation numbers 
     1.0000   1.0000   1.0000   1.0000   1.0000   1.0000   1.0000   1.0000
     0.0000   0.0000   0.0000   0.0000   0.0000   0.0000   0.0000   0.0000

          k = 0.0000-0.0722 0.0000 (  5522 PWs)   bands (ev):

   -20.0629 -19.8909  -8.6130  -7.5413  -4.0164  -4.0004  -3.8370  -3.8229
     2.6858   3.1088   4.1775   5.3140   5.7613   7.5873   7.8584   7.9128

     occupation numbers 
     1.0000   1.0000   1.0000   1.0000   1.0000   1.0000   1.0000   1.0000
     0.0000   0.0000   0.0000   0.0000   0.0000   0.0000   0.0000   0.0000

          k = 0.0625 0.0361 0.0000 (  5522 PWs)   bands (ev):

   -20.0629 -19.8909  -8.6130  -7.5413  -4.0164  -4.0004  -3.8370  -3.8229
     2.6858   3.1088   4.1775   5.3140   5.7613   7.5874   7.8584   7.9127

     occupation numbers 
     1.0000   1.0000   1.0000   1.0000   1.0000   1.0000   1.0000   1.0000
     0.0000   0.0000   0.0000   0.0000   0.0000   0.0000   0.0000   0.0000

          k = 0.0625 0.1083 0.0000 (  5509 PWs)   bands (ev):

   -19.8782 -19.7081  -8.3893  -7.3253  -4.6652  -4.6488  -4.2263  -4.2138
     2.9335   3.3583   4.4321   5.5666   5.9974   7.8051   7.9933   8.0845

     occupation numbers 
     1.0000   1.0000   1.0000   1.0000   1.0000   1.0000   1.0000   1.0000
     0.0000   0.0000   0.0000   0.0000   0.0000   0.0000   0.0000   0.0000

          k = 0.0625 0.1804 0.0000 (  5508 PWs)   bands (ev):

   -19.5100 -19.3437  -7.9452  -6.8970  -5.8020  -5.7723  -4.8830  -4.8633
     3.4287   3.8564   4.9413   6.0712   6.4673   8.0898   8.1469   8.3379

     occupation numbers 
     1.0000   1.0000   1.0000   1.0000   1.0000   1.0000   1.0000   1.0000
     0.0000   0.0000   0.0000   0.0000   0.0000   0.0000   0.0000   0.0000

          k = 0.0625 0.2526 0.0000 (  5504 PWs)   bands (ev):

   -18.9606 -18.8002  -7.2897  -7.2550  -7.2101  -6.2655  -5.5941  -5.5669
     4.1702   4.5992   5.7046   6.8180   7.1300   7.2304   7.5079   7.9978

     occupation numbers 
     1.0000   1.0000   1.0000   1.0000   1.0000   1.0000   1.0000   1.0000
     0.0000   0.0000   0.0000   0.0000   0.0000   0.0000   0.0000   0.0000

          k = 0.0625 0.3248 0.0000 (  5513 PWs)   bands (ev):

   -18.2347 -18.0818  -8.8594  -8.7963  -6.4294  -6.2403  -6.2088  -5.4482
     5.1515   5.3877   5.7129   5.9054   6.7206   7.6906   7.8108   7.8942

     occupation numbers 
[...]
     0.0000   0.0000   0.0000   0.0000   0.0000   0.0000   0.0000   0.0000

          k =-0.1875 0.1804 0.0000 (  5504 PWs)   bands (ev):

   -18.9606 -18.8002  -7.2897  -7.2550  -7.2101  -6.2654  -5.5941  -5.5669
     4.1702   4.5992   5.7045   6.8180   7.1295   7.2303   7.5078   7.9980

     occupation numbers 
     1.0000   1.0000   1.0000   1.0000   1.0000   1.0000   1.0000   1.0000
     0.0000   0.0000   0.0000   0.0000   0.0000   0.0000   0.0000   0.0000

          k =-0.1875 0.2526 0.0000 (  5509 PWs)   bands (ev):

   -18.4158 -18.2611  -8.1324  -8.0896  -6.6397  -6.5904  -6.5614  -5.6464
     4.9106   5.3360   6.0548   6.3292   6.4686   7.5815   7.8587   8.8649

     occupation numbers 
     1.0000   1.0000   1.0000   1.0000   1.0000   1.0000   1.0000   1.0000
     0.0000   0.0000   0.0000   0.0000   0.0000   0.0000   0.0000   0.0000

          k =-0.1875 0.3248 0.0000 (  5512 PWs)   bands (ev):

   -17.6966 -17.5496  -9.1144  -9.0793  -7.6622  -7.6357  -5.7949  -4.8442
     4.7194   5.0117   5.8940   6.3191   7.4831   8.5778   8.7414   9.9241

     occupation numbers 
     1.0000   1.0000   1.0000   1.0000   1.0000   1.0000   1.0000   1.0000
     0.0000   0.0000   0.0000   0.0000   0.0000   0.0000   0.0000   0.0000

          k =-0.1875 0.3969 0.0000 (  5502 PWs)   bands (ev):

   -16.8123 -16.6743 -10.3439 -10.2874  -8.4762  -8.4351  -4.7779  -3.8933
     3.2815   3.6266   7.1119   7.5167   8.7434   9.7092   9.7860  10.1078

     occupation numbers 
     1.0000   1.0000   1.0000   1.0000   1.0000   1.0000   1.0000   1.0000
     0.0000   0.0000   0.0000   0.0000   0.0000   0.0000   0.0000   0.0000

          k =-0.1875-0.6856 0.0000 (  5516 PWs)   bands (ev):

   -15.7811 -15.6546 -11.7209 -11.6421  -8.9631  -8.9096  -3.6497  -2.8784
     1.8657   2.2638   8.5500   8.8838   9.9035  10.0753  10.3086  10.7104

     occupation numbers 
     1.0000   1.0000   1.0000   1.0000   1.0000   1.0000   1.0000   1.0000
     0.0000   0.0000   0.0000   0.0000   0.0000   0.0000   0.0000   0.0000

          k =-0.1875-0.6134 0.0000 (  5522 PWs)   bands (ev):

   -14.6808 -14.5789 -13.0106 -12.9301  -9.1902  -9.1323  -2.6197  -2.1068
     0.8578   1.1307   9.7236  10.0573  10.1995  10.2940  10.8760  11.8274

     occupation numbers 
     1.0000   1.0000   1.0000   1.0000   1.0000   1.0000   1.0000   1.0000
     0.0000   0.0000   0.0000   0.0000   0.0000   0.0000   0.0000   0.0000

          k =-0.1875-0.5413 0.0000 (  5522 PWs)   bands (ev):

   -14.6808 -14.5789 -13.0106 -12.9301  -9.1902  -9.1323  -2.6197  -2.1068
     0.8578   1.1307   9.7236  10.0573  10.1995  10.2941  10.8760  11.8274

     occupation numbers 
     1.0000   1.0000   1.0000   1.0000   1.0000   1.0000   1.0000   1.0000
     0.0000   0.0000   0.0000   0.0000   0.0000   0.0000   0.0000   0.0000

          k =-0.1875-0.4691 0.0000 (  5516 PWs)   bands (ev):

   -15.7811 -15.6546 -11.7209 -11.6421  -8.9631  -8.9096  -3.6497  -2.8784
     1.8657   2.2638   8.5500   8.8838   9.9035  10.0753  10.3087  10.7104

     occupation numbers 
     1.0000   1.0000   1.0000   1.0000   1.0000   1.0000   1.0000   1.0000
     0.0000   0.0000   0.0000   0.0000   0.0000   0.0000   0.0000   0.0000

          k =-0.1875-0.3969 0.0000 (  5502 PWs)   bands (ev):

   -16.8123 -16.6743 -10.3439 -10.2874  -8.4763  -8.4351  -4.7779  -3.8933
     3.2815   3.6266   7.1119   7.5167   8.7434   9.7092   9.7860  10.1077

     occupation numbers 
     1.0000   1.0000   1.0000   1.0000   1.0000   1.0000   1.0000   1.0000
     0.0000   0.0000   0.0000   0.0000   0.0000   0.0000   0.0000   0.0000

          k =-0.1875-0.3248 0.0000 (  5512 PWs)   bands (ev):

   -17.6966 -17.5496  -9.1143  -9.0793  -7.6622  -7.6357  -5.7949  -4.8442
     4.7194   5.0117   5.8940   6.3191   7.4831   8.5779   8.7414   9.9250

     occupation numbers 
     1.0000   1.0000   1.0000   1.0000   1.0000   1.0000   1.0000   1.0000
     0.0000   0.0000   0.0000   0.0000   0.0000   0.0000   0.0000   0.0000

          k =-0.1875-0.2526 0.0000 (  5509 PWs)   bands (ev):

   -18.4158 -18.2611  -8.1324  -8.0896  -6.6397  -6.5905  -6.5614  -5.6464
     4.9106   5.3360   6.0548   6.3292   6.4686   7.5816   7.8587   8.8643

     occupation numbers 
     1.0000   1.0000   1.0000   1.0000   1.0000   1.0000   1.0000   1.0000
     0.0000   0.0000   0.0000   0.0000   0.0000   0.0000   0.0000   0.0000

          k =-0.1875-0.1804 0.0000 (  5504 PWs)   bands (ev):

   -18.9606 -18.8002  -7.2897  -7.2550  -7.2101  -6.2655  -5.5941  -5.5669
     4.1702   4.5992   5.7046   6.8180   7.1299   7.2304   7.5079   7.9987

     occupation numbers 
     1.0000   1.0000   1.0000   1.0000   1.0000   1.0000   1.0000   1.0000
     0.0000   0.0000   0.0000   0.0000   0.0000   0.0000   0.0000   0.0000

          k =-0.1250-0.0722 0.0000 (  5522 PWs)   bands (ev):

   -19.7861 -19.6169  -8.2781  -7.2180  -5.0274  -4.9988  -4.3447  -4.3252
     3.0572   3.4829   4.5594   5.6927   6.1144   7.8487   7.8784   8.0264

     occupation numbers 
     1.0000   1.0000   1.0000   1.0000   1.0000   1.0000   1.0000   1.0000
     0.0000   0.0000   0.0000   0.0000   0.0000   0.0000   0.0000   0.0000

          k =-0.1250 0.0000 0.0000 (  5509 PWs)   bands (ev):

   -19.8782 -19.7081  -8.3893  -7.3253  -4.6652  -4.6488  -4.2262  -4.2138
     2.9335   3.3583   4.4321   5.5666   5.9974   7.8052   7.9933   8.0852

     occupation numbers 
     1.0000   1.0000   1.0000   1.0000   1.0000   1.0000   1.0000   1.0000
     0.0000   0.0000   0.0000   0.0000   0.0000   0.0000   0.0000   0.0000

          k =-0.1250 0.0722 0.0000 (  5522 PWs)   bands (ev):

   -19.7861 -19.6169  -8.2781  -7.2180  -5.0274  -4.9988  -4.3447  -4.3252
     3.0572   3.4829   4.5594   5.6927   6.1144   7.8488   7.8784   8.0265

     occupation numbers 
     1.0000   1.0000   1.0000   1.0000   1.0000   1.0000   1.0000   1.0000
     0.0000   0.0000   0.0000   0.0000   0.0000   0.0000   0.0000   0.0000

          k =-0.1250 0.1443 0.0000 (  5508 PWs)   bands (ev):

   -19.5100 -19.3437  -7.9452  -6.8970  -5.8021  -5.7724  -4.8830  -4.8633
     3.4287   3.8564   4.9413   6.0712   6.4673   8.0898   8.1471   8.3381

     occupation numbers 
     1.0000   1.0000   1.0000   1.0000   1.0000   1.0000   1.0000   1.0000
     0.0000   0.0000   0.0000   0.0000   0.0000   0.0000   0.0000   0.0000

          k =-0.1250 0.2165 0.0000 (  5504 PWs)   bands (ev):

   -19.0519 -18.8906  -7.3960  -6.8276  -6.8020  -6.3690  -5.7397  -5.7214
     4.0473   4.4773   5.5778   6.7013   7.0541   7.5039   7.7289   8.6808

     occupation numbers 
     1.0000   1.0000   1.0000   1.0000   1.0000   1.0000   1.0000   1.0000
     0.0000   0.0000   0.0000   0.0000   0.0000   0.0000   0.0000   0.0000

          k =-0.1250 0.2887 0.0000 (  5509 PWs)   bands (ev):

   -18.4158 -18.2611  -8.1324  -8.0896  -6.6397  -6.5904  -6.5614  -5.6464
     4.9106   5.3360   6.0548   6.3292   6.4686   7.5816   7.8586   8.8642

     occupation numbers 
     1.0000   1.0000   1.0000   1.0000   1.0000   1.0000   1.0000   1.0000
     0.0000   0.0000   0.0000   0.0000   0.0000   0.0000   0.0000   0.0000

          k =-0.1250 0.3608 0.0000 (  5508 PWs)   bands (ev):

   -17.6070 -17.4608  -9.6273  -9.5635  -7.2656  -7.2264  -5.6952  -4.7531
     4.4255   4.8090   6.0164   6.4567   7.6086   8.6191   8.7131   8.8012

     occupation numbers 
     1.0000   1.0000   1.0000   1.0000   1.0000   1.0000   1.0000   1.0000
     0.0000   0.0000   0.0000   0.0000   0.0000   0.0000   0.0000   0.0000

          k =-0.1250 0.4330 0.0000 (  5537 PWs)   bands (ev):

   -16.6372 -16.5012 -11.1654 -11.0845  -7.7476  -7.7031  -4.6038  -3.7485
     2.8082   3.2754   7.3522   7.7829   8.4756   8.6864   9.0182  10.0815

     occupation numbers 
     1.0000   1.0000   1.0000   1.0000   1.0000   1.0000   1.0000   1.0000
     0.0000   0.0000   0.0000   0.0000   0.0000   0.0000   0.0000   0.0000

          k =-0.1250-0.6495 0.0000 (  5535 PWs)   bands (ev):

   -15.5365 -15.4149 -12.6294 -12.5375  -8.0378  -7.9907  -3.4830  -2.8084
     1.4392   1.8947   8.3017   8.5525   8.9397   9.3348  10.6105  11.1940

     occupation numbers 
     1.0000   1.0000   1.0000   1.0000   1.0000   1.0000   1.0000   1.0000
     0.0000   0.0000   0.0000   0.0000   0.0000   0.0000   0.0000   0.0000

          k =-0.1250-0.5774 0.0000 (  5508 PWs)   bands (ev):

   -14.6466 -14.5829 -13.5927 -13.5464  -8.1342  -8.0865  -2.8209  -2.4263
     0.8887   1.1636   8.2553   8.5193  10.6063  10.7023  10.8194  11.0433

     occupation numbers 
     1.0000   1.0000   1.0000   1.0000   1.0000   1.0000   1.0000   1.0000
     0.0000   0.0000   0.0000   0.0000   0.0000   0.0000   0.0000   0.0000

          k =-0.1250-0.5052 0.0000 (  5535 PWs)   bands (ev):

   -15.5365 -15.4149 -12.6294 -12.5375  -8.0378  -7.9907  -3.4830  -2.8084
     1.4392   1.8948   8.3017   8.5525   8.9397   9.3348  10.6105  11.1940

     occupation numbers 
     1.0000   1.0000   1.0000   1.0000   1.0000   1.0000   1.0000   1.0000
     0.0000   0.0000   0.0000   0.0000   0.0000   0.0000   0.0000   0.0000

          k =-0.1250-0.4330 0.0000 (  5537 PWs)   bands (ev):

   -16.6372 -16.5012 -11.1654 -11.0845  -7.7476  -7.7031  -4.6038  -3.7485
     2.8082   3.2754   7.3522   7.7828   8.4756   8.6864   9.0183  10.0783

     occupation numbers 
     1.0000   1.0000   1.0000   1.0000   1.0000   1.0000   1.0000   1.0000
     0.0000   0.0000   0.0000   0.0000   0.0000   0.0000   0.0000   0.0000

          k =-0.1250-0.3608 0.0000 (  5508 PWs)   bands (ev):

   -17.6070 -17.4608  -9.6273  -9.5635  -7.2656  -7.2264  -5.6952  -4.7531
     4.4255   4.8090   6.0164   6.4567   7.6086   8.6191   8.7131   8.8013

     occupation numbers 
     1.0000   1.0000   1.0000   1.0000   1.0000   1.0000   1.0000   1.0000
     0.0000   0.0000   0.0000   0.0000   0.0000   0.0000   0.0000   0.0000

          k =-0.1250-0.2887 0.0000 (  5509 PWs)   bands (ev):

   -18.4158 -18.2611  -8.1324  -8.0896  -6.6397  -6.5905  -6.5614  -5.6464
     4.9106   5.3360   6.0548   6.3292   6.4686   7.5816   7.8588   8.8653

     occupation numbers 
     1.0000   1.0000   1.0000   1.0000   1.0000   1.0000   1.0000   1.0000
     0.0000   0.0000   0.0000   0.0000   0.0000   0.0000   0.0000   0.0000

          k =-0.1250-0.2165 0.0000 (  5504 PWs)   bands (ev):

   -19.0519 -18.8906  -7.3960  -6.8276  -6.8020  -6.3690  -5.7397  -5.7215
     4.0473   4.4773   5.5778   6.7013   7.0542   7.5039   7.7289   8.6811

     occupation numbers 
     1.0000   1.0000   1.0000   1.0000   1.0000   1.0000   1.0000   1.0000
     0.0000   0.0000   0.0000   0.0000   0.0000   0.0000   0.0000   0.0000

          k =-0.1250-0.1443 0.0000 (  5508 PWs)   bands (ev):

   -19.5100 -19.3437  -7.9452  -6.8970  -5.8020  -5.7723  -4.8830  -4.8633
     3.4287   3.8564   4.9413   6.0713   6.4673   8.0897   8.1469   8.3379

     occupation numbers 
     1.0000   1.0000   1.0000   1.0000   1.0000   1.0000   1.0000   1.0000
     0.0000   0.0000   0.0000   0.0000   0.0000   0.0000   0.0000   0.0000

          k =-0.0625-0.0361 0.0000 (  5522 PWs)   bands (ev):

   -20.0629 -19.8909  -8.6130  -7.5413  -4.0164  -4.0004  -3.8370  -3.8229
     2.6858   3.1088   4.1775   5.3140   5.7613   7.5873   7.8584   7.9128

     occupation numbers 
     1.0000   1.0000   1.0000   1.0000   1.0000   1.0000   1.0000   1.0000
     0.0000   0.0000   0.0000   0.0000   0.0000   0.0000   0.0000   0.0000

          k =-0.0625 0.0361 0.0000 (  5522 PWs)   bands (ev):

   -20.0629 -19.8909  -8.6130  -7.5413  -4.0164  -4.0005  -3.8370  -3.8229
     2.6858   3.1088   4.1775   5.3140   5.7613   7.5873   7.8584   7.9131

     occupation numbers 
     1.0000   1.0000   1.0000   1.0000   1.0000   1.0000   1.0000   1.0000
     0.0000   0.0000   0.0000   0.0000   0.0000   0.0000   0.0000   0.0000

          k =-0.0625 0.1083 0.0000 (  5509 PWs)   bands (ev):

   -19.8782 -19.7081  -8.3893  -7.3253  -4.6652  -4.6488  -4.2262  -4.2138
     2.9335   3.3583   4.4321   5.5666   5.9974   7.8051   7.9933   8.0846

     occupation numbers 
     1.0000   1.0000   1.0000   1.0000   1.0000   1.0000   1.0000   1.0000
     0.0000   0.0000   0.0000   0.0000   0.0000   0.0000   0.0000   0.0000

          k =-0.0625 0.1804 0.0000 (  5508 PWs)   bands (ev):

   -19.5100 -19.3437  -7.9452  -6.8970  -5.8021  -5.7723  -4.8830  -4.8633
     3.4287   3.8564   4.9413   6.0712   6.4673   8.0897   8.1468   8.3380

     occupation numbers 
     1.0000   1.0000   1.0000   1.0000   1.0000   1.0000   1.0000   1.0000
     0.0000   0.0000   0.0000   0.0000   0.0000   0.0000   0.0000   0.0000

          k =-0.0625 0.2526 0.0000 (  5504 PWs)   bands (ev):

   -18.9606 -18.8002  -7.2897  -7.2550  -7.2101  -6.2654  -5.5941  -5.5669
     4.1702   4.5992   5.7046   6.8180   7.1295   7.2303   7.5078   7.9978

     occupation numbers 
     1.0000   1.0000   1.0000   1.0000   1.0000   1.0000   1.0000   1.0000
     0.0000   0.0000   0.0000   0.0000   0.0000   0.0000   0.0000   0.0000

          k =-0.0625 0.3248 0.0000 (  5513 PWs)   bands (ev):

   -18.2347 -18.0818  -8.8594  -8.7963  -6.4294  -6.2403  -6.2088  -5.4482
     5.1515   5.3877   5.7129   5.9054   6.7206   7.6906   7.8108   7.8942

     occupation numbers 
     1.0000   1.0000   1.0000   1.0000   1.0000   1.0000   1.0000   1.0000
     0.0000   0.0000   0.0000   0.0000   0.0000   0.0000   0.0000   0.0000

          k =-0.0625 0.3969 0.0000 (  5533 PWs)   bands (ev):

   -17.3396 -17.1961 -10.4865 -10.4082  -6.7605  -6.7265  -5.3999  -4.4844
     3.7463   4.2473   6.3783   6.8390   7.4820   7.6626   8.0092   9.1031

     occupation numbers 
     1.0000   1.0000   1.0000   1.0000   1.0000   1.0000   1.0000   1.0000
     0.0000   0.0000   0.0000   0.0000   0.0000   0.0000   0.0000   0.0000

          k =-0.0625 0.4691 0.0000 (  5542 PWs)   bands (ev):

   -16.2912 -16.1594 -12.0521 -11.9610  -7.1223  -7.0866  -4.2685  -3.4779
     2.1424   2.6868   7.2673   7.4786   7.8764   8.3183   9.5131  10.5868

     occupation numbers 
     1.0000   1.0000   1.0000   1.0000   1.0000   1.0000   1.0000   1.0000
     0.0000   0.0000   0.0000   0.0000   0.0000   0.0000   0.0000   0.0000

          k =-0.0625-0.6134 0.0000 (  5539 PWs)   bands (ev):

   -15.1653 -15.0580 -13.4315 -13.3419  -7.3065  -7.2706  -3.2726  -2.7612
     1.0742   1.5003   7.1742   7.4071   9.5251   9.9835  11.2370  11.3644

     occupation numbers 
     1.0000   1.0000   1.0000   1.0000   1.0000   1.0000   1.0000   1.0000
     0.0000   0.0000   0.0000   0.0000   0.0000   0.0000   0.0000   0.0000

          k =-0.0625-0.5413 0.0000 (  5539 PWs)   bands (ev):

   -15.1653 -15.0580 -13.4315 -13.3419  -7.3065  -7.2706  -3.2726  -2.7612
     1.0742   1.5003   7.1742   7.4071   9.5251   9.9835  11.2370  11.3644

     occupation numbers 
     1.0000   1.0000   1.0000   1.0000   1.0000   1.0000   1.0000   1.0000
     0.0000   0.0000   0.0000   0.0000   0.0000   0.0000   0.0000   0.0000

          k =-0.0625-0.4691 0.0000 (  5542 PWs)   bands (ev):

   -16.2912 -16.1594 -12.0521 -11.9610  -7.1223  -7.0866  -4.2686  -3.4779
     2.1424   2.6868   7.2673   7.4786   7.8764   8.3183   9.5131  10.5900

     occupation numbers 
     1.0000   1.0000   1.0000   1.0000   1.0000   1.0000   1.0000   1.0000
     0.0000   0.0000   0.0000   0.0000   0.0000   0.0000   0.0000   0.0000

          k =-0.0625-0.3969 0.0000 (  5533 PWs)   bands (ev):

   -17.3396 -17.1961 -10.4865 -10.4082  -6.7605  -6.7265  -5.3999  -4.4844
     3.7463   4.2473   6.3783   6.8390   7.4820   7.6626   8.0092   9.1034

     occupation numbers 
     1.0000   1.0000   1.0000   1.0000   1.0000   1.0000   1.0000   1.0000
     0.0000   0.0000   0.0000   0.0000   0.0000   0.0000   0.0000   0.0000

          k =-0.0625-0.3248 0.0000 (  5513 PWs)   bands (ev):

   -18.2347 -18.0818  -8.8594  -8.7963  -6.4294  -6.2403  -6.2088  -5.4482
     5.1515   5.3877   5.7129   5.9054   6.7206   7.6906   7.8108   7.8942

     occupation numbers 
     1.0000   1.0000   1.0000   1.0000   1.0000   1.0000   1.0000   1.0000
     0.0000   0.0000   0.0000   0.0000   0.0000   0.0000   0.0000   0.0000

          k =-0.0625-0.2526 0.0000 (  5504 PWs)   bands (ev):

   -18.9606 -18.8002  -7.2897  -7.2550  -7.2101  -6.2655  -5.5941  -5.5669
     4.1702   4.5992   5.7046   6.8180   7.1295   7.2303   7.5078   7.9982

     occupation numbers 
     1.0000   1.0000   1.0000   1.0000   1.0000   1.0000   1.0000   1.0000
     0.0000   0.0000   0.0000   0.0000   0.0000   0.0000   0.0000   0.0000

          k =-0.0625-0.1804 0.0000 (  5508 PWs)   bands (ev):

   -19.5100 -19.3437  -7.9452  -6.8970  -5.8020  -5.7723  -4.8830  -4.8633
     3.4287   3.8564   4.9413   6.0712   6.4673   8.0897   8.1468   8.3380

     occupation numbers 
     1.0000   1.0000   1.0000   1.0000   1.0000   1.0000   1.0000   1.0000
     0.0000   0.0000   0.0000   0.0000   0.0000   0.0000   0.0000   0.0000

          k =-0.0625-0.1083 0.0000 (  5509 PWs)   bands (ev):

   -19.8782 -19.7081  -8.3893  -7.3253  -4.6652  -4.6488  -4.2263  -4.2138
     2.9335   3.3583   4.4321   5.5667   5.9974   7.8052   7.9932   8.0846

     occupation numbers 
     1.0000   1.0000   1.0000   1.0000   1.0000   1.0000   1.0000   1.0000
     0.0000   0.0000   0.0000   0.0000   0.0000   0.0000   0.0000   0.0000

     the Fermi energy is    -0.6166 ev
     (compare with:    -0.5037 eV, computed in scf)

     Writing all to output data dir ./tmp/C2L_AB_PBE_vdW.save/

     init_run     :      9.03s CPU      9.05s WALL (       1 calls)
     electrons    :     46.18s CPU     47.98s WALL (       1 calls)

     Called by init_run:
     wfcinit      :      0.00s CPU      0.00s WALL (       1 calls)
     wfcinit:atom :      0.04s CPU      0.04s WALL (     256 calls)
     wfcinit:wfcr :      2.02s CPU      2.08s WALL (     256 calls)
     potinit      :      8.71s CPU      8.73s WALL (       1 calls)
     hinit0       :      0.29s CPU      0.30s WALL (       1 calls)

     Called by electrons:
     c_bands      :     46.17s CPU     47.98s WALL (       1 calls)
     v_of_rho     :      8.71s CPU      8.73s WALL (       1 calls)
     v_h          :      0.00s CPU      0.00s WALL (       1 calls)
     v_xc         :      8.71s CPU      8.73s WALL (       1 calls)
     vdW_kernel   :      8.67s CPU      8.68s WALL (       1 calls)

     Called by c_bands:
     init_us_2    :      0.05s CPU      0.05s WALL (     256 calls)
     init_us_2:cp :      0.05s CPU      0.05s WALL (     256 calls)
     cegterg      :     43.80s CPU     45.51s WALL (     470 calls)

     Called by sum_band:

     Called by *egterg:
     cdiaghg      :      5.02s CPU      5.13s WALL (    7051 calls)
     cegterg:over :      3.84s CPU      3.92s WALL (    6795 calls)
     cegterg:upda :      4.41s CPU      5.69s WALL (    6795 calls)
     cegterg:last :      4.48s CPU      4.18s WALL (    3313 calls)
     cdiaghg:chol :      0.42s CPU      0.43s WALL (    7051 calls)
     cdiaghg:inve :      0.13s CPU      0.14s WALL (    7051 calls)
     cdiaghg:para :      0.68s CPU      0.72s WALL (   14102 calls)
     h_psi        :     26.84s CPU     27.27s WALL (    7521 calls)
     g_psi        :      0.21s CPU      0.24s WALL (    6795 calls)

     Called by h_psi:
     h_psi:calbec :      1.96s CPU      2.00s WALL (    7521 calls)
     vloc_psi     :     22.53s CPU     23.25s WALL (    7521 calls)
     add_vuspsi   :      2.15s CPU      1.78s WALL (    7521 calls)

     General routines
     calbec       :      1.95s CPU      1.98s WALL (    7521 calls)
     fft          :      0.27s CPU      0.28s WALL (      61 calls)
     fftw         :     20.35s CPU     20.90s WALL (  116224 calls)
     davcio       :      0.00s CPU      0.05s WALL (     512 calls)

     Parallel routines

     PWSCF        :     55.76s CPU     57.84s WALL


   This run was terminated on:   7:11: 7  14Apr2025            

=------------------------------------------------------------------------------=
   JOB DONE.
=------------------------------------------------------------------------------=
