
     Program PWSCF v.7.2 starts on  7Apr2024 at  9:49: 5 

     This program is part of the open-source Quantum ESPRESSO suite
     for quantum simulation of materials; please cite
         "P. Giannozzi et al., J. Phys.:Condens. Matter 21 395502 (2009);
         "P. Giannozzi et al., J. Phys.:Condens. Matter 29 465901 (2017);
         "P. Giannozzi et al., J. Chem. Phys. 152 154105 (2020);
          URL http://www.quantum-espresso.org", 
     in publications or presentations arising from this work. More details at
     http://www.quantum-espresso.org/quote

     Parallel version (MPI & OpenMP), running on       8 processor cores
     Number of MPI processes:                 8
     Threads/MPI process:                     1

     MPI processes distributed on     1 nodes
     0 MiB available memory on the printing compute node when the environment starts

     Waiting for input...
     Reading input from standard input

     Current dimensions of program PWSCF are:
     Max number of different atomic species (ntypx) = 10
     Max number of k-points (npk) =  40000
     Max angular momentum in pseudopotentials (lmaxx) =  4

     R & G space division:  proc/nbgrp/npool/nimage =       8
     Subspace diagonalization in iterative solution of the eigenvalue problem:
     a serial algorithm will be used


     Parallelization info
     --------------------
     sticks:   dense  smooth     PW     G-vecs:    dense   smooth      PW
     Min         107     107     31                 7025     7025    1093
     Max         109     109     32                 7033     7033    1102
     Sum         859     859    253                56215    56215    8789

     Using Slab Decomposition



     bravais-lattice index     =            4
     lattice parameter (alat)  =       4.7400  a.u.
     unit-cell volume          =     251.3875 (a.u.)^3
     number of atoms/cell      =            4
     number of atomic types    =            2
     number of electrons       =        16.00
     number of Kohn-Sham states=           12
     kinetic-energy cutoff     =     140.0000  Ry
     charge density cutoff     =     560.0000  Ry
     scf convergence threshold =      1.0E-06
     mixing beta               =       0.7000
     number of iterations used =            8  plain     mixing
     energy convergence thresh.=      1.0E-04
     force convergence thresh. =      1.0E-03
     press convergence thresh. =      5.0E-01
     Exchange-correlation= PBE
                           (   1   4   3   4   0   0   0)
     nstep                     =           50


     celldm(1)=   4.740000  celldm(2)=   0.000000  celldm(3)=   2.725700
     celldm(4)=   0.000000  celldm(5)=   0.000000  celldm(6)=   0.000000

     crystal axes: (cart. coord. in units of alat)
               a(1) = (   1.000000   0.000000   0.000000 )  
               a(2) = (  -0.500000   0.866025   0.000000 )  
               a(3) = (   0.000000   0.000000   2.725700 )  

     reciprocal axes: (cart. coord. in units 2 pi/alat)
               b(1) = (  1.000000  0.577350 -0.000000 )  
               b(2) = (  0.000000  1.154701  0.000000 )  
               b(3) = (  0.000000 -0.000000  0.366878 )  


     PseudoPot. # 1 for B  read from file:
     ../../../Pseudo/PBE/B.upf
     MD5 check sum: 72f82fc31bc892420d0cab7e25c88ab8
     Pseudo is Norm-conserving + core correction, Zval =  3.0
     Generated using ONCVPSP code by D. R. Hamann
     Using radial grid of 1534 points,  4 beta functions with: 
                l(1) =   0
                l(2) =   0
                l(3) =   1
                l(4) =   1

     PseudoPot. # 2 for N  read from file:
     ../../../Pseudo/PBE/N.upf
     MD5 check sum: d34365f73bb0e2ee98afc20ec3e87676
     Pseudo is Norm-conserving + core correction, Zval =  5.0
     Generated using ONCVPSP code by D. R. Hamann
     Using radial grid of 1058 points,  4 beta functions with: 
                l(1) =   0
                l(2) =   0
                l(3) =   1
                l(4) =   1

     atomic species   valence    mass     pseudopotential
        B              3.00    10.00000     B ( 1.00)
        N              5.00    14.00000     N ( 1.00)

     24 Sym. Ops., with inversion, found (12 have fractional translation)


                                    s                        frac. trans.

      isym =  1     identity                                     

 cryst.   s( 1) = (     1          0          0      )
                  (     0          1          0      )
                  (     0          0          1      )

 cart.    s( 1) = (  1.0000000  0.0000000  0.0000000 )
                  (  0.0000000  1.0000000  0.0000000 )
                  (  0.0000000  0.0000000  1.0000000 )


      isym =  2     180 deg rotation - cart. axis [0,0,1]        

 cryst.   s( 2) = (    -1          0          0      )    f =(  0.3333330 )
                  (     0         -1          0      )       ( -0.3333330 )
                  (     0          0          1      )       ( -0.5000000 )

 cart.    s( 2) = ( -1.0000000  0.0000000  0.0000000 )    f =(  0.4999995 )
                  (  0.0000000 -1.0000000  0.0000000 )       ( -0.2886748 )
                  (  0.0000000  0.0000000  1.0000000 )       ( -1.3628500 )


      isym =  3     180 deg rotation - cart. axis [0,1,0]        

 cryst.   s( 3) = (    -1          0          0      )
                  (     1          1          0      )
                  (     0          0         -1      )

 cart.    s( 3) = ( -1.0000000  0.0000000  0.0000000 )
                  (  0.0000000  1.0000000  0.0000000 )
                  (  0.0000000  0.0000000 -1.0000000 )


      isym =  4     180 deg rotation - cart. axis [1,0,0]        

 cryst.   s( 4) = (     1          0          0      )    f =(  0.3333340 )
                  (    -1         -1          0      )       ( -0.3333330 )
                  (     0          0         -1      )       (  0.5000000 )

 cart.    s( 4) = (  1.0000000  0.0000000  0.0000000 )    f =(  0.5000005 )
                  (  0.0000000 -1.0000000  0.0000000 )       ( -0.2886748 )
                  (  0.0000000  0.0000000 -1.0000000 )       (  1.3628500 )


      isym =  5      60 deg rotation - cryst. axis [0,0,1]       

 cryst.   s( 5) = (     1          1          0      )    f =(  0.3333340 )
                  (    -1          0          0      )       ( -0.3333330 )
                  (     0          0          1      )       ( -0.5000000 )

 cart.    s( 5) = (  0.5000000 -0.8660254  0.0000000 )    f =(  0.5000005 )
                  (  0.8660254  0.5000000  0.0000000 )       ( -0.2886748 )
                  (  0.0000000  0.0000000  1.0000000 )       ( -1.3628500 )


      isym =  6      60 deg rotation - cryst. axis [0,0,-1]      

 cryst.   s( 6) = (     0         -1          0      )    f =(  0.3333330 )
                  (     1          1          0      )       ( -0.3333340 )
                  (     0          0          1      )       ( -0.5000000 )

 cart.    s( 6) = (  0.5000000  0.8660254  0.0000000 )    f =(  0.5000000 )
                  ( -0.8660254  0.5000000  0.0000000 )       ( -0.2886757 )
                  (  0.0000000  0.0000000  1.0000000 )       ( -1.3628500 )


      isym =  7     120 deg rotation - cryst. axis [0,0,1]       

 cryst.   s( 7) = (     0          1          0      )
                  (    -1         -1          0      )
                  (     0          0          1      )

 cart.    s( 7) = ( -0.5000000 -0.8660254  0.0000000 )
                  (  0.8660254 -0.5000000  0.0000000 )
                  (  0.0000000  0.0000000  1.0000000 )


      isym =  8     120 deg rotation - cryst. axis [0,0,-1]      

 cryst.   s( 8) = (    -1         -1          0      )
                  (     1          0          0      )
                  (     0          0          1      )

 cart.    s( 8) = ( -0.5000000  0.8660254  0.0000000 )
                  ( -0.8660254 -0.5000000  0.0000000 )
                  (  0.0000000  0.0000000  1.0000000 )


      isym =  9     180 deg rotation - cryst. axis [1,-1,0]      

 cryst.   s( 9) = (     0         -1          0      )
                  (    -1          0          0      )
                  (     0          0         -1      )

 cart.    s( 9) = (  0.5000000 -0.8660254  0.0000000 )
                  ( -0.8660254 -0.5000000  0.0000000 )
                  (  0.0000000  0.0000000 -1.0000000 )


      isym = 10     180 deg rotation - cryst. axis [2,1,0]       

 cryst.   s(10) = (     1          1          0      )
                  (     0         -1          0      )
                  (     0          0         -1      )

 cart.    s(10) = (  0.5000000  0.8660254  0.0000000 )
                  (  0.8660254 -0.5000000  0.0000000 )
                  (  0.0000000  0.0000000 -1.0000000 )


      isym = 11     180 deg rotation - cryst. axis [0,1,0]       

 cryst.   s(11) = (    -1         -1          0      )    f =(  0.3333330 )
                  (     0          1          0      )       ( -0.3333340 )
                  (     0          0         -1      )       (  0.5000000 )

 cart.    s(11) = ( -0.5000000 -0.8660254  0.0000000 )    f =(  0.5000000 )
                  ( -0.8660254  0.5000000  0.0000000 )       ( -0.2886757 )
                  (  0.0000000  0.0000000 -1.0000000 )       (  1.3628500 )


      isym = 12     180 deg rotation - cryst. axis [1,1,0]       

 cryst.   s(12) = (     0          1          0      )    f =(  0.3333330 )
                  (     1          0          0      )       ( -0.3333330 )
                  (     0          0         -1      )       (  0.5000000 )

 cart.    s(12) = ( -0.5000000  0.8660254  0.0000000 )    f =(  0.4999995 )
                  (  0.8660254  0.5000000  0.0000000 )       ( -0.2886748 )
                  (  0.0000000  0.0000000 -1.0000000 )       (  1.3628500 )


      isym = 13     inversion                                    

 cryst.   s(13) = (    -1          0          0      )    f =(  0.3333330 )
                  (     0         -1          0      )       ( -0.3333330 )
                  (     0          0         -1      )       (  0.5000000 )

 cart.    s(13) = ( -1.0000000  0.0000000  0.0000000 )    f =(  0.4999995 )
                  (  0.0000000 -1.0000000  0.0000000 )       ( -0.2886748 )
                  (  0.0000000  0.0000000 -1.0000000 )       (  1.3628500 )


      isym = 14     inv. 180 deg rotation - cart. axis [0,0,1]   

 cryst.   s(14) = (     1          0          0      )
                  (     0          1          0      )
                  (     0          0         -1      )

 cart.    s(14) = (  1.0000000  0.0000000  0.0000000 )
                  (  0.0000000  1.0000000  0.0000000 )
                  (  0.0000000  0.0000000 -1.0000000 )


      isym = 15     inv. 180 deg rotation - cart. axis [0,1,0]   

 cryst.   s(15) = (     1          0          0      )    f =(  0.3333340 )
                  (    -1         -1          0      )       ( -0.3333330 )
                  (     0          0          1      )       ( -0.5000000 )

 cart.    s(15) = (  1.0000000  0.0000000  0.0000000 )    f =(  0.5000005 )
                  (  0.0000000 -1.0000000  0.0000000 )       ( -0.2886748 )
                  (  0.0000000  0.0000000  1.0000000 )       ( -1.3628500 )


      isym = 16     inv. 180 deg rotation - cart. axis [1,0,0]   

 cryst.   s(16) = (    -1          0          0      )
                  (     1          1          0      )
                  (     0          0          1      )

 cart.    s(16) = ( -1.0000000  0.0000000  0.0000000 )
                  (  0.0000000  1.0000000  0.0000000 )
                  (  0.0000000  0.0000000  1.0000000 )


      isym = 17     inv.  60 deg rotation - cryst. axis [0,0,1]  

 cryst.   s(17) = (    -1         -1          0      )
                  (     1          0          0      )
                  (     0          0         -1      )

 cart.    s(17) = ( -0.5000000  0.8660254  0.0000000 )
                  ( -0.8660254 -0.5000000  0.0000000 )
                  (  0.0000000  0.0000000 -1.0000000 )


      isym = 18     inv.  60 deg rotation - cryst. axis [0,0,-1] 

 cryst.   s(18) = (     0          1          0      )
                  (    -1         -1          0      )
                  (     0          0         -1      )

 cart.    s(18) = ( -0.5000000 -0.8660254  0.0000000 )
                  (  0.8660254 -0.5000000  0.0000000 )
                  (  0.0000000  0.0000000 -1.0000000 )


      isym = 19     inv. 120 deg rotation - cryst. axis [0,0,1]  

 cryst.   s(19) = (     0         -1          0      )    f =(  0.3333330 )
                  (     1          1          0      )       ( -0.3333340 )
                  (     0          0         -1      )       (  0.5000000 )

 cart.    s(19) = (  0.5000000  0.8660254  0.0000000 )    f =(  0.5000000 )
                  ( -0.8660254  0.5000000  0.0000000 )       ( -0.2886757 )
                  (  0.0000000  0.0000000 -1.0000000 )       (  1.3628500 )


      isym = 20     inv. 120 deg rotation - cryst. axis [0,0,-1] 

 cryst.   s(20) = (     1          1          0      )    f =(  0.3333340 )
                  (    -1          0          0      )       ( -0.3333330 )
                  (     0          0         -1      )       (  0.5000000 )

 cart.    s(20) = (  0.5000000 -0.8660254  0.0000000 )    f =(  0.5000005 )
                  (  0.8660254  0.5000000  0.0000000 )       ( -0.2886748 )
                  (  0.0000000  0.0000000 -1.0000000 )       (  1.3628500 )


      isym = 21     inv. 180 deg rotation - cryst. axis [1,-1,0] 

 cryst.   s(21) = (     0          1          0      )    f =(  0.3333330 )
                  (     1          0          0      )       ( -0.3333330 )
                  (     0          0          1      )       ( -0.5000000 )

 cart.    s(21) = ( -0.5000000  0.8660254  0.0000000 )    f =(  0.4999995 )
                  (  0.8660254  0.5000000  0.0000000 )       ( -0.2886748 )
                  (  0.0000000  0.0000000  1.0000000 )       ( -1.3628500 )


      isym = 22     inv. 180 deg rotation - cryst. axis [2,1,0]  

 cryst.   s(22) = (    -1         -1          0      )    f =(  0.3333330 )
                  (     0          1          0      )       ( -0.3333340 )
                  (     0          0          1      )       ( -0.5000000 )

 cart.    s(22) = ( -0.5000000 -0.8660254  0.0000000 )    f =(  0.5000000 )
                  ( -0.8660254  0.5000000  0.0000000 )       ( -0.2886757 )
                  (  0.0000000  0.0000000  1.0000000 )       ( -1.3628500 )


      isym = 23     inv. 180 deg rotation - cryst. axis [0,1,0]  

 cryst.   s(23) = (     1          1          0      )
                  (     0         -1          0      )
                  (     0          0          1      )

 cart.    s(23) = (  0.5000000  0.8660254  0.0000000 )
                  (  0.8660254 -0.5000000  0.0000000 )
                  (  0.0000000  0.0000000  1.0000000 )


      isym = 24     inv. 180 deg rotation - cryst. axis [1,1,0]  

 cryst.   s(24) = (     0         -1          0      )
                  (    -1          0          0      )
                  (     0          0          1      )

 cart.    s(24) = (  0.5000000 -0.8660254  0.0000000 )
                  ( -0.8660254 -0.5000000  0.0000000 )
                  (  0.0000000  0.0000000  1.0000000 )


     point group D_6h(6/mmm)
     there are 12 classes
     the character table:

       E     2C6   2C3   C2    3C2'  3C2'' i     2S3   2S6   s_h   3s_d  3s_v 
A_1g   1.00  1.00  1.00  1.00  1.00  1.00  1.00  1.00  1.00  1.00  1.00  1.00
A_2g   1.00  1.00  1.00  1.00 -1.00 -1.00  1.00  1.00  1.00  1.00 -1.00 -1.00
B_1g   1.00 -1.00  1.00 -1.00  1.00 -1.00  1.00 -1.00  1.00 -1.00  1.00 -1.00
B_2g   1.00 -1.00  1.00 -1.00 -1.00  1.00  1.00 -1.00  1.00 -1.00 -1.00  1.00
E_1g   2.00  1.00 -1.00 -2.00  0.00  0.00  2.00  1.00 -1.00 -2.00  0.00  0.00
E_2g   2.00 -1.00 -1.00  2.00  0.00  0.00  2.00 -1.00 -1.00  2.00  0.00  0.00
A_1u   1.00  1.00  1.00  1.00  1.00  1.00 -1.00 -1.00 -1.00 -1.00 -1.00 -1.00
A_2u   1.00  1.00  1.00  1.00 -1.00 -1.00 -1.00 -1.00 -1.00 -1.00  1.00  1.00
B_1u   1.00 -1.00  1.00 -1.00  1.00 -1.00 -1.00  1.00 -1.00  1.00 -1.00  1.00
B_2u   1.00 -1.00  1.00 -1.00 -1.00  1.00 -1.00  1.00 -1.00  1.00  1.00 -1.00
E_1u   2.00  1.00 -1.00 -2.00  0.00  0.00 -2.00 -1.00  1.00  2.00  0.00  0.00
E_2u   2.00 -1.00 -1.00  2.00  0.00  0.00 -2.00  1.00  1.00 -2.00  0.00  0.00

     the symmetry operations in each class and the name of the first element:

     E        1
          identity                                               
     2C6      5    6
           60 deg rotation - cryst. axis [0,0,1]                 
     2C3      7    8
          120 deg rotation - cryst. axis [0,0,1]                 
     C2       2
          180 deg rotation - cart. axis [0,0,1]                  
     3C2'     4   12   11
          180 deg rotation - cart. axis [1,0,0]                  
     3C2''    3    9   10
          180 deg rotation - cart. axis [0,1,0]                  
     i       13
          inversion                                              
     2S3     17   18
          inv.  60 deg rotation - cryst. axis [0,0,1]            
     2S6     19   20
          inv. 120 deg rotation - cryst. axis [0,0,1]            
     s_h     14
          inv. 180 deg rotation - cart. axis [0,0,1]             
     3s_d    16   24   23
          inv. 180 deg rotation - cart. axis [1,0,0]             
     3s_v    15   21   22
          inv. 180 deg rotation - cart. axis [0,1,0]             

   Cartesian axes

     site n.     atom                  positions (alat units)
         1           B   tau(   1) = (   0.0000000   0.0000000   0.0000000  )
         2           N   tau(   2) = (   0.5000005   0.2886748   0.0000000  )
         3           N   tau(   3) = (   0.0000000   0.0000000   1.3628500  )
         4           B   tau(   4) = (   0.5000005   0.2886748   1.3628500  )

     --------------------------------------------
     DFT-D3 Dispersion Correction (3-body terms):
     --------------------------------------------
       Reference C6 values for interpolation: 

         atom   Coordination number   C6
         B          0.000           214.36
         B          0.971           150.74
         B          1.944           106.23
         B          2.913            62.89
         B          4.586            56.06
         N          0.000            50.54
         N          0.994            44.25
         N          2.014            39.35
         N          2.990            31.16

       Values used:

         atom   Coordination number  R0_AB[au]  C6      C8
         B          3.344            3.039     62.89   2505.79
         N          3.143            2.478     31.21    688.61
         N          3.143            2.478     31.21    688.61
         B          3.344            3.039     62.89   2505.79

         Molecular C6 ( Ry / a.u.^6 ) =       724.23


   Crystallographic axes

     site n.     atom                  positions (cryst. coord.)
         1           B   tau(   1) = (  0.0000000  0.0000000  0.0000000  )
         2           N   tau(   2) = (  0.6666670  0.3333330  0.0000000  )
         3           N   tau(   3) = (  0.0000000  0.0000000  0.5000000  )
         4           B   tau(   4) = (  0.6666670  0.3333330  0.5000000  )

     number of k points=    38  Marzari-Vanderbilt smearing, width (Ry)=  0.0050
                       cart. coord. in units 2pi/alat
        k(    1) = (   0.0000000   0.0000000   0.0000000), wk =   0.0046296
        k(    2) = (   0.0000000   0.0000000   0.1222927), wk =   0.0092593
        k(    3) = (   0.0000000   0.0962250   0.0000000), wk =   0.0277778
        k(    4) = (   0.0000000   0.0962250   0.1222927), wk =   0.0555556
        k(    5) = (   0.0000000   0.1924501   0.0000000), wk =   0.0277778
        k(    6) = (   0.0000000   0.1924501   0.1222927), wk =   0.0555556
        k(    7) = (   0.0000000   0.2886751   0.0000000), wk =   0.0277778
        k(    8) = (   0.0000000   0.2886751   0.1222927), wk =   0.0555556
        k(    9) = (   0.0000000   0.3849002   0.0000000), wk =   0.0277778
        k(   10) = (   0.0000000   0.3849002   0.1222927), wk =   0.0555556
        k(   11) = (   0.0000000   0.4811252   0.0000000), wk =   0.0277778
        k(   12) = (   0.0000000   0.4811252   0.1222927), wk =   0.0555556
        k(   13) = (   0.0000000  -0.5773503   0.0000000), wk =   0.0138889
        k(   14) = (   0.0000000  -0.5773503   0.1222927), wk =   0.0277778
        k(   15) = (   0.0833333   0.1443376   0.0000000), wk =   0.0277778
        k(   16) = (   0.0833333   0.1443376   0.1222927), wk =   0.0555556
        k(   17) = (   0.0833333   0.2405626   0.0000000), wk =   0.0555556
        k(   18) = (   0.0833333   0.2405626   0.1222927), wk =   0.1111111
        k(   19) = (   0.0833333   0.3367877   0.0000000), wk =   0.0555556
        k(   20) = (   0.0833333   0.3367877   0.1222927), wk =   0.1111111
        k(   21) = (   0.0833333   0.4330127   0.0000000), wk =   0.0555556
        k(   22) = (   0.0833333   0.4330127   0.1222927), wk =   0.1111111
        k(   23) = (   0.0833333   0.5292377   0.0000000), wk =   0.0555556
        k(   24) = (   0.0833333   0.5292377   0.1222927), wk =   0.1111111
        k(   25) = (   0.1666667   0.2886751   0.0000000), wk =   0.0277778
        k(   26) = (   0.1666667   0.2886751   0.1222927), wk =   0.0555556
        k(   27) = (   0.1666667   0.3849002   0.0000000), wk =   0.0555556
        k(   28) = (   0.1666667   0.3849002   0.1222927), wk =   0.1111111
        k(   29) = (   0.1666667   0.4811252   0.0000000), wk =   0.0555556
        k(   30) = (   0.1666667   0.4811252   0.1222927), wk =   0.1111111
        k(   31) = (   0.1666667   0.5773503   0.0000000), wk =   0.0277778
        k(   32) = (   0.1666667   0.5773503   0.1222927), wk =   0.0555556
        k(   33) = (   0.2500000   0.4330127   0.0000000), wk =   0.0277778
        k(   34) = (   0.2500000   0.4330127   0.1222927), wk =   0.0555556
        k(   35) = (   0.2500000   0.5292377   0.0000000), wk =   0.0555556
        k(   36) = (   0.2500000   0.5292377   0.1222927), wk =   0.1111111
        k(   37) = (   0.3333333   0.5773503   0.0000000), wk =   0.0092593
        k(   38) = (   0.3333333   0.5773503   0.1222927), wk =   0.0185185

                       cryst. coord.
        k(    1) = (   0.0000000   0.0000000   0.0000000), wk =   0.0046296
        k(    2) = (   0.0000000   0.0000000   0.3333333), wk =   0.0092593
        k(    3) = (   0.0000000   0.0833333   0.0000000), wk =   0.0277778
        k(    4) = (   0.0000000   0.0833333   0.3333333), wk =   0.0555556
        k(    5) = (   0.0000000   0.1666667   0.0000000), wk =   0.0277778
        k(    6) = (   0.0000000   0.1666667   0.3333333), wk =   0.0555556
        k(    7) = (   0.0000000   0.2500000   0.0000000), wk =   0.0277778
        k(    8) = (   0.0000000   0.2500000   0.3333333), wk =   0.0555556
        k(    9) = (   0.0000000   0.3333333   0.0000000), wk =   0.0277778
        k(   10) = (   0.0000000   0.3333333   0.3333333), wk =   0.0555556
        k(   11) = (   0.0000000   0.4166667   0.0000000), wk =   0.0277778
        k(   12) = (   0.0000000   0.4166667   0.3333333), wk =   0.0555556
        k(   13) = (   0.0000000  -0.5000000   0.0000000), wk =   0.0138889
        k(   14) = (   0.0000000  -0.5000000   0.3333333), wk =   0.0277778
        k(   15) = (   0.0833333   0.0833333   0.0000000), wk =   0.0277778
        k(   16) = (   0.0833333   0.0833333   0.3333333), wk =   0.0555556
        k(   17) = (   0.0833333   0.1666667   0.0000000), wk =   0.0555556
        k(   18) = (   0.0833333   0.1666667   0.3333333), wk =   0.1111111
        k(   19) = (   0.0833333   0.2500000   0.0000000), wk =   0.0555556
        k(   20) = (   0.0833333   0.2500000   0.3333333), wk =   0.1111111
        k(   21) = (   0.0833333   0.3333333   0.0000000), wk =   0.0555556
        k(   22) = (   0.0833333   0.3333333   0.3333333), wk =   0.1111111
        k(   23) = (   0.0833333   0.4166667   0.0000000), wk =   0.0555556
        k(   24) = (   0.0833333   0.4166667   0.3333333), wk =   0.1111111
        k(   25) = (   0.1666667   0.1666667   0.0000000), wk =   0.0277778
        k(   26) = (   0.1666667   0.1666667   0.3333333), wk =   0.0555556
        k(   27) = (   0.1666667   0.2500000   0.0000000), wk =   0.0555556
        k(   28) = (   0.1666667   0.2500000   0.3333333), wk =   0.1111111
        k(   29) = (   0.1666667   0.3333333   0.0000000), wk =   0.0555556
        k(   30) = (   0.1666667   0.3333333   0.3333333), wk =   0.1111111
        k(   31) = (   0.1666667   0.4166667   0.0000000), wk =   0.0277778
        k(   32) = (   0.1666667   0.4166667   0.3333333), wk =   0.0555556
        k(   33) = (   0.2500000   0.2500000   0.0000000), wk =   0.0277778
        k(   34) = (   0.2500000   0.2500000   0.3333333), wk =   0.0555556
        k(   35) = (   0.2500000   0.3333333   0.0000000), wk =   0.0555556
        k(   36) = (   0.2500000   0.3333333   0.3333333), wk =   0.1111111
        k(   37) = (   0.3333333   0.3333333   0.0000000), wk =   0.0092593
        k(   38) = (   0.3333333   0.3333333   0.3333333), wk =   0.0185185

     Dense  grid:    56215 G-vectors     FFT dimensions: (  36,  36, 100)

     Dynamical RAM for                 wfc:       0.16 MB

     Dynamical RAM for     wfc (w. buffer):       6.28 MB

     Dynamical RAM for           str. fact:       0.21 MB

     Dynamical RAM for           local pot:       0.00 MB

     Dynamical RAM for          nlocal pot:       0.43 MB

     Dynamical RAM for                qrad:       2.17 MB

     Dynamical RAM for          rho,v,vnew:       0.71 MB

     Dynamical RAM for               rhoin:       0.24 MB

     Dynamical RAM for            rho*nmix:       1.72 MB

     Dynamical RAM for           G-vectors:       0.46 MB

     Dynamical RAM for          h,s,v(r/c):       0.03 MB

     Dynamical RAM for          <psi|beta>:       0.01 MB

     Dynamical RAM for                 psi:       0.32 MB

     Dynamical RAM for                hpsi:       0.32 MB

     Dynamical RAM for      wfcinit/wfcrot:       0.44 MB

     Estimated static dynamical RAM per process >      11.45 MB

     Estimated max dynamical RAM per process >      13.84 MB

     Estimated total dynamical RAM >     110.75 MB

     Initial potential from superposition of free atoms

     starting charge      15.9995, renormalised to      16.0000
     Starting wfcs are   16 randomized atomic wfcs

     total cpu time spent up to now is        1.2 secs

     Self-consistent Calculation

     iteration #  1     ecut=   140.00 Ry     beta= 0.70
     Davidson diagonalization with overlap

---- Real-time Memory Report at c_bands before calling an iterative solver
             0 MiB given to the printing process from OS
             0 MiB allocation reported by mallinfo(arena+hblkhd)
             0 MiB available memory on the node where the printing process lives
------------------
     ethr =  1.00E-02,  avg # of iterations =  3.6

     total cpu time spent up to now is        2.8 secs

     total energy              =     -53.41374454 Ry
     estimated scf accuracy    <       0.74305330 Ry

     iteration #  2     ecut=   140.00 Ry     beta= 0.70
     Davidson diagonalization with overlap

---- Real-time Memory Report at c_bands before calling an iterative solver
             0 MiB given to the printing process from OS
             0 MiB allocation reported by mallinfo(arena+hblkhd)
             0 MiB available memory on the node where the printing process lives
------------------
     ethr =  4.64E-03,  avg # of iterations =  2.0

     total cpu time spent up to now is        3.7 secs

     total energy              =     -53.60370138 Ry
     estimated scf accuracy    <       0.30109454 Ry

     iteration #  3     ecut=   140.00 Ry     beta= 0.70
     Davidson diagonalization with overlap

---- Real-time Memory Report at c_bands before calling an iterative solver
             0 MiB given to the printing process from OS
             0 MiB allocation reported by mallinfo(arena+hblkhd)
             0 MiB available memory on the node where the printing process lives
------------------
     ethr =  1.88E-03,  avg # of iterations =  1.5

     total cpu time spent up to now is        4.4 secs

     total energy              =     -53.65268252 Ry
     estimated scf accuracy    <       0.00449769 Ry

     iteration #  4     ecut=   140.00 Ry     beta= 0.70
     Davidson diagonalization with overlap

---- Real-time Memory Report at c_bands before calling an iterative solver
             0 MiB given to the printing process from OS
             0 MiB allocation reported by mallinfo(arena+hblkhd)
             0 MiB available memory on the node where the printing process lives
------------------
     c_bands:  1 eigenvalues not converged
     ethr =  2.81E-05,  avg # of iterations =  8.6

     total cpu time spent up to now is        6.2 secs

     total energy              =     -53.65600992 Ry
     estimated scf accuracy    <       0.00342642 Ry

     iteration #  5     ecut=   140.00 Ry     beta= 0.70
     Davidson diagonalization with overlap

---- Real-time Memory Report at c_bands before calling an iterative solver
             0 MiB given to the printing process from OS
             0 MiB allocation reported by mallinfo(arena+hblkhd)
             0 MiB available memory on the node where the printing process lives
------------------
     ethr =  2.14E-05,  avg # of iterations =  2.3

     total cpu time spent up to now is        7.0 secs

     total energy              =     -53.65659393 Ry
     estimated scf accuracy    <       0.00002887 Ry

     iteration #  6     ecut=   140.00 Ry     beta= 0.70
     Davidson diagonalization with overlap

---- Real-time Memory Report at c_bands before calling an iterative solver
             0 MiB given to the printing process from OS
             0 MiB allocation reported by mallinfo(arena+hblkhd)
             0 MiB available memory on the node where the printing process lives
------------------
     c_bands:  1 eigenvalues not converged
     c_bands:  1 eigenvalues not converged
     ethr =  1.80E-07,  avg # of iterations =  8.1

     total cpu time spent up to now is        8.6 secs

     total energy              =     -53.65662930 Ry
     estimated scf accuracy    <       0.00006571 Ry

     iteration #  7     ecut=   140.00 Ry     beta= 0.70
     Davidson diagonalization with overlap

---- Real-time Memory Report at c_bands before calling an iterative solver
             0 MiB given to the printing process from OS
             0 MiB allocation reported by mallinfo(arena+hblkhd)
             0 MiB available memory on the node where the printing process lives
------------------
     ethr =  1.80E-07,  avg # of iterations =  2.1

     total cpu time spent up to now is        9.4 secs

     End of self-consistent calculation

          k = 0.0000 0.0000 0.0000 (  7003 PWs)   bands (ev):

   -13.3231 -13.0877  -1.6609   0.1784   3.0522   3.0523   3.0798   3.0798
     9.5220  14.3415  16.0104  16.0133

     occupation numbers 
     1.0000   1.0000   1.0000   1.0000   1.0000   1.0000   1.0000   1.0000
     0.0000   0.0000   0.0000   0.0000

          k = 0.0000 0.0000 0.1223 (  7020 PWs)   bands (ev):

   -13.2665 -13.1489  -1.2677  -0.3642   3.0591   3.0591   3.0729   3.0729
    10.6086  12.8990  16.0367  16.0433

     occupation numbers 
     1.0000   1.0000   1.0000   1.0000   1.0000   1.0000   1.0000   1.0000
     0.0000   0.0000   0.0000   0.0000

          k = 0.0000 0.0962 0.0000 (  6985 PWs)   bands (ev):

   -13.1881 -12.9564  -1.4752   0.3469   2.4977   2.5200   2.7930   2.8238
     9.7684  14.2798  15.8239  16.0173

     occupation numbers 
     1.0000   1.0000   1.0000   1.0000   1.0000   1.0000   1.0000   1.0000
     0.0000   0.0000   0.0000   0.0000

          k = 0.0000 0.0962 0.1223 (  7009 PWs)   bands (ev):

   -13.1324 -13.0166  -1.0859  -0.1910   2.5053   2.5176   2.8006   2.8161
    10.8277  13.0175  15.9105  15.9953

     occupation numbers 
     1.0000   1.0000   1.0000   1.0000   1.0000   1.0000   1.0000   1.0000
     0.0000   0.0000   0.0000   0.0000

          k = 0.0000 0.1925 0.0000 (  7023 PWs)   bands (ev):

   -12.7903 -12.5701  -0.9254   0.8421   1.0903   1.1172   2.1620   2.1992
    10.4196  13.9661  15.4208  15.5018

     occupation numbers 
     1.0000   1.0000   1.0000   1.0000   1.0000   1.0000   1.0000   1.0000
     0.0000   0.0000   0.0000   0.0000

          k = 0.0000 0.1925 0.1223 (  7013 PWs)   bands (ev):

   -12.7372 -12.6272  -0.5502   0.3099   1.1054   1.1283   2.1713   2.1898
    11.3802  13.1745  15.5020  15.5707

     occupation numbers 
     1.0000   1.0000   1.0000   1.0000   1.0000   1.0000   1.0000   1.0000
     0.0000   0.0000   0.0000   0.0000

          k = 0.0000 0.2887 0.0000 (  7047 PWs)   bands (ev):

   -12.1563 -11.9564  -0.6980  -0.6542  -0.0370   1.4308   1.4735   1.6272
    11.3650  13.0728  13.6837  15.0132

     occupation numbers 
     1.0000   1.0000   1.0000   1.0000   1.0000   1.0000   1.0000   1.0000
     0.0000   0.0000   0.0000   0.0000

          k = 0.0000 0.2887 0.1223 (  7005 PWs)   bands (ev):

   -12.1079 -12.0080  -0.6994  -0.6732   0.3403   1.1572   1.4414   1.4628
    11.9889  12.8161  14.1269  14.9312

     occupation numbers 
     1.0000   1.0000   1.0000   1.0000   1.0000   1.0000   1.0000   1.0000
     0.0000   0.0000   0.0000   0.0000

          k = 0.0000 0.3849 0.0000 (  7024 PWs)   bands (ev):

   -11.3530 -11.1855  -2.4798  -2.4189   0.8027   0.8492   1.1237   2.6082
    11.3263  12.0069  12.5026  14.6858

     occupation numbers 
     1.0000   1.0000   1.0000   1.0000   1.0000   1.0000   1.0000   1.0000
     0.0000   0.0000   0.0000   0.0000

          k = 0.0000 0.3849 0.1223 (  7034 PWs)   bands (ev):

   -11.3122 -11.2285  -2.4681  -2.4373   0.8143   0.8375   1.4595   2.1952
    11.3001  11.6363  13.6380  14.5895

     occupation numbers 
     1.0000   1.0000   1.0000   1.0000   1.0000   1.0000   1.0000   1.0000
     0.0000   0.0000   0.0000   0.0000

          k = 0.0000 0.4811 0.0000 (  7010 PWs)   bands (ev):

   -10.5522 -10.4385  -3.9004  -3.8368   0.3907   0.4393   2.3663   3.5354
     9.5389  10.5952  13.5366  14.4787

     occupation numbers 
     1.0000   1.0000   1.0000   1.0000   1.0000   1.0000   1.0000   1.0000
     0.0000   0.0000   0.0000   0.0000

          k = 0.0000 0.4811 0.1223 (  7032 PWs)   bands (ev):

   -10.5242 -10.4674  -3.8874  -3.8556   0.4028   0.4271   2.6447   3.2293
     9.6839  10.2068  14.0437  14.4402

     occupation numbers 
     1.0000   1.0000   1.0000   1.0000   1.0000   1.0000   1.0000   1.0000
     0.0000   0.0000   0.0000   0.0000

          k = 0.0000-0.5774 0.0000 (  7032 PWs)   bands (ev):

   -10.1589 -10.1029  -4.4820  -4.4305   0.2481   0.2975   3.0523   3.9116
     8.7444   9.9412  13.9343  14.4083

     occupation numbers 
     1.0000   1.0000   1.0000   1.0000   1.0000   1.0000   1.0000   1.0000
     0.0000   0.0000   0.0000   0.0000

          k = 0.0000-0.5774 0.1223 (  7032 PWs)   bands (ev):

   -10.1448 -10.1168  -4.4723  -4.4465   0.2604   0.2851   3.2738   3.7079
     8.9133   9.5072  14.1841  14.3925

     occupation numbers 
     1.0000   1.0000   1.0000   1.0000   1.0000   1.0000   1.0000   1.0000
     0.0000   0.0000   0.0000   0.0000

          k = 0.0833 0.1443 0.0000 (  6991 PWs)   bands (ev):

   -12.9216 -12.6975  -1.1074   0.6789   1.5888   1.6009   2.2826   2.3144
    10.2203  14.0954  15.9310  16.0219

     occupation numbers 
     1.0000   1.0000   1.0000   1.0000   1.0000   1.0000   1.0000   1.0000
     0.0000   0.0000   0.0000   0.0000

          k = 0.0833 0.1443 0.1223 (  7009 PWs)   bands (ev):

   -12.8676 -12.7557  -0.7266   0.1484   1.5972   1.6076   2.2907   2.3065
    11.2196  13.1669  15.9599  16.0102

     occupation numbers 
     1.0000   1.0000   1.0000   1.0000   1.0000   1.0000   1.0000   1.0000
     0.0000   0.0000   0.0000   0.0000

          k = 0.0833 0.2406 0.0000 (  7016 PWs)   bands (ev):

   -12.4044 -12.1961  -0.3870   0.1003   0.1252   1.3209   1.4891   1.5286
    11.0381  13.5178  14.3831  15.7396

     occupation numbers 
     1.0000   1.0000   1.0000   1.0000   1.0000   1.0000   1.0000   1.0000
     0.0000   0.0000   0.0000   0.0000

          k = 0.0833 0.2406 0.1223 (  7005 PWs)   bands (ev):

   -12.3541 -12.2500  -0.0833   0.0976   0.1766   0.8461   1.5005   1.5198
    11.8477  13.0924  14.7534  15.6294

     occupation numbers 
     1.0000   1.0000   1.0000   1.0000   1.0000   1.0000   1.0000   1.0000
     0.0000   0.0000   0.0000   0.0000

          k = 0.0833 0.3368 0.0000 (  7022 PWs)   bands (ev):

   -11.6796 -11.4970  -1.6230  -1.5755   0.6441   0.7388   0.7852   2.2131
    12.1346  12.2349  12.6432  15.4089

     occupation numbers 
     1.0000   1.0000   1.0000   1.0000   1.0000   1.0000   1.0000   1.0000
     0.0000   0.0000   0.0000   0.0000

          k = 0.0833 0.3368 0.1223 (  7021 PWs)   bands (ev):

   -11.6353 -11.5440  -1.6159  -1.5915   0.7459   0.7705   1.0026   1.7741
    11.9458  12.2284  13.7606  15.2308

     occupation numbers 
     1.0000   1.0000   1.0000   1.0000   1.0000   1.0000   1.0000   1.0000
     0.0000   0.0000   0.0000   0.0000

          k = 0.0833 0.4330 0.0000 (  7037 PWs)   bands (ev):

   -10.8545 -10.7134  -3.2150  -3.1527   0.1850   0.2356   1.8764   3.2025
    10.3779  11.1765  13.3709  15.1457

     occupation numbers 
     1.0000   1.0000   1.0000   1.0000   1.0000   1.0000   1.0000   1.0000
     0.0000   0.0000   0.0000   0.0000

          k = 0.0833 0.4330 0.1223 (  7033 PWs)   bands (ev):

   -10.8200 -10.7494  -3.2023  -3.1710   0.1968   0.2222   2.1841   2.8440
    10.4540  10.8536  14.2400  15.0574

     occupation numbers 
     1.0000   1.0000   1.0000   1.0000   1.0000   1.0000   1.0000   1.0000
     0.0000   0.0000   0.0000   0.0000

          k = 0.0833 0.5292 0.0000 (  7048 PWs)   bands (ev):

   -10.2002 -10.1245  -4.2542  -4.1965  -0.1052  -0.0526   2.9641   3.9009
     9.0124  10.0806  14.3023  15.0045

     occupation numbers 
     1.0000   1.0000   1.0000   1.0000   1.0000   1.0000   1.0000   1.0000
     0.0000   0.0000   0.0000   0.0000

          k = 0.0833 0.5292 0.1223 (  7029 PWs)   bands (ev):

   -10.1813 -10.1435  -4.2427  -4.2138  -0.0927  -0.0663   3.2007   3.6725
     9.1591   9.6910  14.6738  14.9770

     occupation numbers 
     1.0000   1.0000   1.0000   1.0000   1.0000   1.0000   1.0000   1.0000
     0.0000   0.0000   0.0000   0.0000

          k = 0.1667 0.2887 0.0000 (  7027 PWs)   bands (ev):

   -11.7925 -11.6050  -1.0999  -1.0939   0.4714   0.4802   0.5139   2.0758
    12.0402  12.6677  12.8620  16.6880

     occupation numbers 
     1.0000   1.0000   1.0000   1.0000   1.0000   1.0000   1.0000   1.0000
     0.0000   0.0000   0.0000   0.0000

          k = 0.1667 0.2887 0.1223 (  7016 PWs)   bands (ev):

   -11.7470 -11.6533  -1.1046  -1.1000   0.4789   0.4952   0.8472   1.6300
    12.1458  12.4789  13.9420  16.1739

     occupation numbers 
     1.0000   1.0000   1.0000   1.0000   1.0000   1.0000   1.0000   1.0000
     0.0000   0.0000   0.0000   0.0000

          k = 0.1667 0.3849 0.0000 (  7040 PWs)   bands (ev):

   -11.0249 -10.8704  -2.4650  -2.4290  -0.3976  -0.3486   1.6077   3.0087
    11.1494  11.5199  13.3316  16.7108

     occupation numbers 
     1.0000   1.0000   1.0000   1.0000   1.0000   1.0000   1.0000   1.0000
     0.0000   0.0000   0.0000   0.0000

          k = 0.1667 0.3849 0.1223 (  7044 PWs)   bands (ev):

   -10.9872 -10.9100  -2.4586  -2.4406  -0.3873  -0.3628   1.9302   2.6260
    11.0945  11.3131  14.4880  16.3296

     occupation numbers 
     1.0000   1.0000   1.0000   1.0000   1.0000   1.0000   1.0000   1.0000
     0.0000   0.0000   0.0000   0.0000

          k = 0.1667 0.4811 0.0000 (  7040 PWs)   bands (ev):

   -10.2736 -10.1717  -3.6631  -3.6044  -0.9218  -0.8660   2.8088   3.8678
     9.6287  10.3462  14.7502  16.5119

     occupation numbers 
     1.0000   1.0000   1.0000   1.0000   1.0000   1.0000   1.0000   1.0000
     0.0000   0.0000   0.0000   0.0000

          k = 0.1667 0.4811 0.1223 (  7046 PWs)   bands (ev):

   -10.2484 -10.1975  -3.6507  -3.6214  -0.9093  -0.8814   3.0686   3.5997
     9.7034  10.0681  15.5015  16.3817

     occupation numbers 
     1.0000   1.0000   1.0000   1.0000   1.0000   1.0000   1.0000   1.0000
     0.0000   0.0000   0.0000   0.0000

          k = 0.1667 0.5774 0.0000 (  7063 PWs)   bands (ev):

    -9.9127  -9.8645  -4.1703  -4.1081  -1.0944  -1.0362   3.4781   4.1901
     8.9577   9.7820  15.6085  16.4340

     occupation numbers 
     1.0000   1.0000   1.0000   1.0000   1.0000   1.0000   1.0000   1.0000
     0.0000   0.0000   0.0000   0.0000

          k = 0.1667 0.5774 0.1223 (  7048 PWs)   bands (ev):

    -9.9006  -9.8764  -4.1572  -4.1261  -1.0813  -1.0521   3.6729   4.0340
     9.0463   9.4613  16.0343  16.3984

     occupation numbers 
     1.0000   1.0000   1.0000   1.0000   1.0000   1.0000   1.0000   1.0000
     0.0000   0.0000   0.0000   0.0000

          k = 0.2500 0.4330 0.0000 (  7043 PWs)   bands (ev):

   -10.3075 -10.1958  -3.1895  -3.1599  -1.4772  -1.4363   2.7389   3.8477
    10.0198  10.4439  14.8130  16.7693

     occupation numbers 
     1.0000   1.0000   1.0000   1.0000   1.0000   1.0000   1.0000   1.0000
     0.0000   0.0000   0.0000   0.0000

          k = 0.2500 0.4330 0.1223 (  7057 PWs)   bands (ev):

   -10.2800 -10.2241  -3.1835  -3.1689  -1.4693  -1.4489   3.0080   3.5631
    10.0231  10.2528  15.6693  16.7213

     occupation numbers 
     1.0000   1.0000   1.0000   1.0000   1.0000   1.0000   1.0000   1.0000
     0.0000   0.0000   0.0000   0.0000

          k = 0.2500 0.5292 0.0000 (  7061 PWs)   bands (ev):

    -9.7711  -9.7190  -3.7270  -3.6529  -2.0874  -2.0413   3.7348   4.3582
     9.2137   9.6490  15.9293  16.3428

     occupation numbers 
     1.0000   1.0000   1.0000   1.0000   1.0000   1.0000   1.0000   1.0000
     0.0000   0.0000   0.0000   0.0000

          k = 0.2500 0.5292 0.1223 (  7059 PWs)   bands (ev):

    -9.7581  -9.7320  -3.7099  -3.6729  -2.0783  -2.0552   3.9127   4.2292
     9.2095   9.4348  16.3188  16.8259

     occupation numbers 
     1.0000   1.0000   1.0000   1.0000   1.0000   1.0000   1.0000   1.0000
     0.0000   0.0000   0.0000   0.0000

          k = 0.3333 0.5774 0.0000 (  7071 PWs)   bands (ev):

    -9.5520  -9.5520  -3.5403  -3.4131  -2.7442  -2.7442   4.3442   4.3442
     9.2255   9.2255  15.3293  17.5728

     occupation numbers 
     1.0000   1.0000   1.0000   1.0000   1.0000   1.0000   1.0000   1.0000
     0.0000   0.0000   0.0000   0.0000

          k = 0.3333 0.5774 0.1223 (  7062 PWs)   bands (ev):

    -9.5518  -9.5518  -3.5090  -3.4455  -2.7475  -2.7475   4.3862   4.3862
     9.1041   9.1041  15.8533  18.0006

     occupation numbers 
     1.0000   1.0000   1.0000   1.0000   1.0000   1.0000   1.0000   1.0000
     0.0000   0.0000   0.0000   0.0000

     the Fermi energy is     6.4243 ev

!    total energy              =     -53.65664205 Ry
     estimated scf accuracy    <       0.00000008 Ry
     smearing contrib. (-TS)   =       0.00000000 Ry
     internal energy E=F+TS    =     -53.65664205 Ry

     The total energy is F=E-TS. E is the sum of the following terms:
     one-electron contribution =     -18.11148323 Ry
     hartree contribution      =      17.27321873 Ry
     xc contribution           =     -17.33112436 Ry
     ewald contribution        =     -35.46233395 Ry
     DFT-D3 Dispersion         =      -0.02491924 Ry

     convergence has been achieved in   7 iterations

     Forces acting on atoms (cartesian axes, Ry/au):

     atom    1 type  1   force =     0.00000000    0.00000000   -0.00000000
     atom    2 type  2   force =    -0.00000000   -0.00000000    0.00000000
     atom    3 type  2   force =    -0.00000000   -0.00000000    0.00000000
     atom    4 type  1   force =     0.00000000   -0.00000000   -0.00000000
     The non-local contrib.  to forces
     atom    1 type  1   force =     0.00000000   -0.00000000    0.00000000
     atom    2 type  2   force =     0.00000000   -0.00000000    0.00000000
     atom    3 type  2   force =     0.00000000    0.00000000    0.00000000
     atom    4 type  1   force =    -0.00000000   -0.00000000    0.00000000
     The ionic contribution  to forces
     atom    1 type  1   force =     0.00000773   -0.00000446   -0.00000000
     atom    2 type  2   force =    -0.00000774    0.00000447   -0.00000000
     atom    3 type  2   force =     0.00000774   -0.00000447    0.00000000
     atom    4 type  1   force =    -0.00000773    0.00000446    0.00000000
     The local contribution  to forces
     atom    1 type  1   force =    -0.00000000   -0.00000000    0.00000000
     atom    2 type  2   force =    -0.00003344    0.00001931    0.00000000
     atom    3 type  2   force =     0.00000000    0.00000000    0.00000000
     atom    4 type  1   force =     0.00000417   -0.00000241    0.00000000
     The core correction contribution to forces
     atom    1 type  1   force =    -0.00000000   -0.00000001    0.00000000
     atom    2 type  2   force =     0.00000141   -0.00000083    0.00000000
     atom    3 type  2   force =    -0.00000001   -0.00000002   -0.00000000
     atom    4 type  1   force =     0.00000021   -0.00000013    0.00000000
     The Hubbard contrib.    to forces
     atom    1 type  1   force =     0.00000000    0.00000000    0.00000000
     atom    2 type  2   force =     0.00000000    0.00000000    0.00000000
     atom    3 type  2   force =     0.00000000    0.00000000    0.00000000
     atom    4 type  1   force =     0.00000000    0.00000000    0.00000000
     The SCF correction term to forces
     atom    1 type  1   force =    -0.00000000    0.00000000   -0.00000000
     atom    2 type  2   force =     0.00000000   -0.00000000    0.00000000
     atom    3 type  2   force =    -0.00000000    0.00000000   -0.00000000
     atom    4 type  1   force =    -0.00000000    0.00000000   -0.00000000

     DFT-D3 dispersion contribution to forces:
     atom    1 type  1   force =     0.00000000   -0.00000000    0.00000000
     atom    2 type  2   force =    -0.00000000    0.00000000   -0.00000000
     atom    3 type  2   force =     0.00000000   -0.00000000    0.00000000
     atom    4 type  1   force =    -0.00000000    0.00000000    0.00000000

     Total force =     0.000000     Total SCF correction =     0.000000

     DFT-D3 dispersion Force =     0.000000


     Computing stress (Cartesian axis) and pressure

          total   stress  (Ry/bohr**3)                   (kbar)     P=       -0.10
   0.00000165   0.00000000  -0.00000000            0.24        0.00       -0.00
   0.00000000   0.00000165   0.00000000            0.00        0.24        0.00
   0.00000000   0.00000000  -0.00000543            0.00        0.00       -0.80

     kinetic stress (kbar)  14154.50     -0.00      0.00
                               -0.00  14154.50     -0.00
                                0.00      0.00  15472.08

     local   stress (kbar) -19121.25      0.01      0.00
                                0.01 -19121.24     -0.00
                                0.00     -0.00  21110.88

     nonloc. stress (kbar)  -2329.01      0.00      0.00
                                0.00  -2329.01     -0.00
                                0.00     -0.00  -2265.62

     hartree stress (kbar)   7662.02     -0.00      0.00
                               -0.00   7662.02      0.00
                                0.00      0.00  -5216.22

     exc-cor stress (kbar)  -1411.08     -0.00     -0.00
                               -0.00  -1411.08     -0.00
                               -0.00     -0.00  -1509.38

     corecor stress (kbar)  -1578.92      0.00     -0.00
                                0.00  -1578.92      0.00
                               -0.00      0.00  -1550.15

     ewald   stress (kbar)   2635.13     -0.02     -0.00
                               -0.02   2635.11     -0.00
                               -0.00     -0.00 -26021.82

     hubbard stress (kbar)      0.00      0.00      0.00
                                0.00      0.00      0.00
                                0.00      0.00      0.00

     DFT-D   stress (kbar)    -11.15      0.00     -0.00
                                0.00    -11.15     -0.00
                               -0.00     -0.00    -20.57

     XDM     stress (kbar)      0.00      0.00      0.00
                                0.00      0.00      0.00
                                0.00      0.00      0.00

     dft-nl  stress (kbar)      0.00      0.00      0.00
                                0.00      0.00      0.00
                                0.00      0.00      0.00

     TS-vdW  stress (kbar)      0.00      0.00      0.00
                                0.00      0.00      0.00
                                0.00      0.00      0.00

     MDB     stress (kbar)      0.00      0.00      0.00
                                0.00      0.00      0.00
                                0.00      0.00      0.00

     3D-RISM stress (kbar)      0.00      0.00      0.00
                                0.00      0.00      0.00
                                0.00      0.00      0.00


     BFGS Geometry Optimization
     Energy error            =      0.0E+00 Ry
     Gradient error          =      7.8E-22 Ry/Bohr
     Cell gradient error     =      8.0E-01 kbar

     number of scf cycles    =   1
     number of bfgs steps    =   0

     enthalpy           new  =     -53.6566420479 Ry

     new trust radius        =       0.0004302597 bohr
     new conv_thr            =       0.0000010000 Ry

     new unit-cell volume =    251.37418 a.u.^3 (    37.24981 Ang^3 )
     density =      2.13977 g/cm^3

CELL_PARAMETERS (alat=  4.74000000)
   1.000041307   0.000000000   0.000000000
  -0.500020654   0.866061177   0.000000000
  -0.000000000   0.000000000   2.725330166

ATOMIC_POSITIONS (crystal)
B             0.0000000000        0.0000000000        0.0000000000    0   0   0
N             0.6666670000        0.3333330000        0.0000000000    0   0   0
N            -0.0000000000       -0.0000000000        0.5000000000
B             0.6666670000        0.3333330000        0.5000000000



     Writing config-only to output data dir ./tmp/BNBULK_AA1_PBE_vdW.save/
     NEW-OLD atomic charge density approx. for the potential
     extrapolated charge   15.99915, renormalised to   16.00000

     total cpu time spent up to now is       13.4 secs

     Self-consistent Calculation

     iteration #  1     ecut=   140.00 Ry     beta= 0.70
     Davidson diagonalization with overlap

---- Real-time Memory Report at c_bands before calling an iterative solver
             0 MiB given to the printing process from OS
             0 MiB allocation reported by mallinfo(arena+hblkhd)
             0 MiB available memory on the node where the printing process lives
------------------
     ethr =  1.00E-06,  avg # of iterations =  1.0

     Threshold (ethr) on eigenvalues was too large:
     Diagonalizing with lowered threshold

     Davidson diagonalization with overlap

---- Real-time Memory Report at c_bands before calling an iterative solver
             0 MiB given to the printing process from OS
             0 MiB allocation reported by mallinfo(arena+hblkhd)
             0 MiB available memory on the node where the printing process lives
------------------
     ethr =  8.72E-10,  avg # of iterations =  4.2

     total cpu time spent up to now is       15.8 secs

     End of self-consistent calculation

          k = 0.0000 0.0000 0.0000 (  7003 PWs)   bands (ev):

   -13.3237 -13.0881  -1.6606   0.1794   3.0501   3.0502   3.0778   3.0778
     9.5242  14.3432  16.0078  16.0103

     occupation numbers 
     1.0000   1.0000   1.0000   1.0000   1.0000   1.0000   1.0000   1.0000
     0.0000   0.0000   0.0000   0.0000

          k = 0.0000 0.0000 0.1223 (  7020 PWs)   bands (ev):

   -13.2671 -13.1494  -1.2673  -0.3634   3.0570   3.0571   3.0708   3.0709
    10.6110  12.9012  16.0340  16.0405

     occupation numbers 
     1.0000   1.0000   1.0000   1.0000   1.0000   1.0000   1.0000   1.0000
     0.0000   0.0000   0.0000   0.0000

          k =-0.0000 0.0962-0.0000 (  6985 PWs)   bands (ev):

   -13.1887 -12.9569  -1.4750   0.3478   2.4957   2.5181   2.7909   2.8218
     9.7706  14.2812  15.8215  16.0148

     occupation numbers 
     1.0000   1.0000   1.0000   1.0000   1.0000   1.0000   1.0000   1.0000
     0.0000   0.0000   0.0000   0.0000

          k =-0.0000 0.0962 0.1223 (  7009 PWs)   bands (ev):

   -13.1329 -13.0171  -1.0855  -0.1903   2.5034   2.5157   2.7986   2.8141
    10.8301  13.0196  15.9081  15.9927

     occupation numbers 
     1.0000   1.0000   1.0000   1.0000   1.0000   1.0000   1.0000   1.0000
     0.0000   0.0000   0.0000   0.0000

          k =-0.0000 0.1924-0.0000 (  7023 PWs)   bands (ev):

   -12.7910 -12.5706  -0.9252   0.8430   1.0886   1.1155   2.1601   2.1973
    10.4218  13.9668  15.4185  15.5002

     occupation numbers 
     1.0000   1.0000   1.0000   1.0000   1.0000   1.0000   1.0000   1.0000
     0.0000   0.0000   0.0000   0.0000

          k =-0.0000 0.1924 0.1223 (  7013 PWs)   bands (ev):

   -12.7379 -12.6278  -0.5500   0.3105   1.1037   1.1267   2.1694   2.1880
    11.3824  13.1760  15.4997  15.5688

     occupation numbers 
     1.0000   1.0000   1.0000   1.0000   1.0000   1.0000   1.0000   1.0000
     0.0000   0.0000   0.0000   0.0000

          k =-0.0000 0.2887-0.0000 (  7047 PWs)   bands (ev):

   -12.1571 -11.9570  -0.6995  -0.6557  -0.0370   1.4290   1.4718   1.6279
    11.3669  13.0726  13.6826  15.0110

     occupation numbers 
     1.0000   1.0000   1.0000   1.0000   1.0000   1.0000   1.0000   1.0000
     0.0000   0.0000   0.0000   0.0000

          k =-0.0000 0.2887 0.1223 (  7005 PWs)   bands (ev):

   -12.1087 -12.0087  -0.7009  -0.6747   0.3404   1.1577   1.4396   1.4610
    11.9902  12.8163  14.1261  14.9292

     occupation numbers 
     1.0000   1.0000   1.0000   1.0000   1.0000   1.0000   1.0000   1.0000
     0.0000   0.0000   0.0000   0.0000

          k =-0.0000 0.3849-0.0000 (  7024 PWs)   bands (ev):

   -11.3539 -11.1862  -2.4810  -2.4200   0.8010   0.8476   1.1235   2.6086
    11.3256  12.0065  12.5038  14.6837

     occupation numbers 
     1.0000   1.0000   1.0000   1.0000   1.0000   1.0000   1.0000   1.0000
     0.0000   0.0000   0.0000   0.0000

          k =-0.0000 0.3849 0.1223 (  7034 PWs)   bands (ev):

   -11.3131 -11.2293  -2.4693  -2.4385   0.8126   0.8359   1.4594   2.1955
    11.2996  11.6360  13.6383  14.5877

     occupation numbers 
     1.0000   1.0000   1.0000   1.0000   1.0000   1.0000   1.0000   1.0000
     0.0000   0.0000   0.0000   0.0000

          k =-0.0000 0.4811-0.0000 (  7010 PWs)   bands (ev):

   -10.5533 -10.4395  -3.9014  -3.8378   0.3890   0.4377   2.3659   3.5355
     9.5386  10.5951  13.5364  14.4766

     occupation numbers 
     1.0000   1.0000   1.0000   1.0000   1.0000   1.0000   1.0000   1.0000
     0.0000   0.0000   0.0000   0.0000

          k =-0.0000 0.4811 0.1223 (  7032 PWs)   bands (ev):

   -10.5252 -10.4683  -3.8884  -3.8565   0.4011   0.4255   2.6444   3.2292
     9.6836  10.2067  14.0428  14.4382

     occupation numbers 
     1.0000   1.0000   1.0000   1.0000   1.0000   1.0000   1.0000   1.0000
     0.0000   0.0000   0.0000   0.0000

          k = 0.0000-0.5773 0.0000 (  7032 PWs)   bands (ev):

   -10.1600 -10.1040  -4.4829  -4.4313   0.2465   0.2959   3.0517   3.9114
     8.7444   9.9413  13.9331  14.4062

     occupation numbers 
     1.0000   1.0000   1.0000   1.0000   1.0000   1.0000   1.0000   1.0000
     0.0000   0.0000   0.0000   0.0000

          k = 0.0000-0.5773 0.1223 (  7032 PWs)   bands (ev):

   -10.1459 -10.1179  -4.4731  -4.4473   0.2588   0.2835   3.2733   3.7076
     8.9133   9.5073  14.1826  14.3905

     occupation numbers 
     1.0000   1.0000   1.0000   1.0000   1.0000   1.0000   1.0000   1.0000
     0.0000   0.0000   0.0000   0.0000

          k = 0.0833 0.1443 0.0000 (  6991 PWs)   bands (ev):

   -12.9222 -12.6980  -1.1072   0.6798   1.5870   1.5991   2.2807   2.3125
    10.2225  14.0962  15.9294  16.0196

     occupation numbers 
     1.0000   1.0000   1.0000   1.0000   1.0000   1.0000   1.0000   1.0000
     0.0000   0.0000   0.0000   0.0000

          k = 0.0833 0.1443 0.1223 (  7009 PWs)   bands (ev):

   -12.8682 -12.7562  -0.7263   0.1491   1.5954   1.6059   2.2888   2.3046
    11.2218  13.1686  15.9573  16.0077

     occupation numbers 
     1.0000   1.0000   1.0000   1.0000   1.0000   1.0000   1.0000   1.0000
     0.0000   0.0000   0.0000   0.0000

          k = 0.0833 0.2406-0.0000 (  7016 PWs)   bands (ev):

   -12.4051 -12.1966  -0.3870   0.0987   0.1236   1.3217   1.4874   1.5269
    11.0402  13.5178  14.3817  15.7373

     occupation numbers 
     1.0000   1.0000   1.0000   1.0000   1.0000   1.0000   1.0000   1.0000
     0.0000   0.0000   0.0000   0.0000

          k = 0.0833 0.2406 0.1223 (  7005 PWs)   bands (ev):

   -12.3548 -12.2506  -0.0836   0.0960   0.1755   0.8466   1.4987   1.5180
    11.8495  13.0931  14.7523  15.6277

     occupation numbers 
     1.0000   1.0000   1.0000   1.0000   1.0000   1.0000   1.0000   1.0000
     0.0000   0.0000   0.0000   0.0000

          k = 0.0833 0.3368-0.0000 (  7022 PWs)   bands (ev):

   -11.6804 -11.4977  -1.6243  -1.5769   0.6440   0.7372   0.7836   2.2137
    12.1363  12.2343  12.6424  15.4066

     occupation numbers 
     1.0000   1.0000   1.0000   1.0000   1.0000   1.0000   1.0000   1.0000
     0.0000   0.0000   0.0000   0.0000

          k = 0.0833 0.3368 0.1223 (  7021 PWs)   bands (ev):

   -11.6361 -11.5448  -1.6172  -1.5929   0.7443   0.7689   1.0026   1.7744
    11.9457  12.2282  13.7612  15.2293

     occupation numbers 
     1.0000   1.0000   1.0000   1.0000   1.0000   1.0000   1.0000   1.0000
     0.0000   0.0000   0.0000   0.0000

          k = 0.0833 0.4330-0.0000 (  7037 PWs)   bands (ev):

   -10.8555 -10.7143  -3.2161  -3.1538   0.1834   0.2341   1.8761   3.2027
    10.3774  11.1762  13.3718  15.1434

     occupation numbers 
     1.0000   1.0000   1.0000   1.0000   1.0000   1.0000   1.0000   1.0000
     0.0000   0.0000   0.0000   0.0000

          k = 0.0833 0.4330 0.1223 (  7033 PWs)   bands (ev):

   -10.8209 -10.7503  -3.2034  -3.1721   0.1952   0.2207   2.1839   2.8441
    10.4535  10.8533  14.2401  15.0555

     occupation numbers 
     1.0000   1.0000   1.0000   1.0000   1.0000   1.0000   1.0000   1.0000
     0.0000   0.0000   0.0000   0.0000

          k = 0.0833 0.5292-0.0000 (  7048 PWs)   bands (ev):

   -10.2013 -10.1255  -4.2551  -4.1974  -0.1068  -0.0541   2.9636   3.9008
     9.0123  10.0807  14.3016  15.0024

     occupation numbers 
     1.0000   1.0000   1.0000   1.0000   1.0000   1.0000   1.0000   1.0000
     0.0000   0.0000   0.0000   0.0000

          k = 0.0833 0.5292 0.1223 (  7029 PWs)   bands (ev):

   -10.1824 -10.1445  -4.2436  -4.2147  -0.0942  -0.0679   3.2003   3.6723
     9.1589   9.6910  14.6726  14.9750

     occupation numbers 
     1.0000   1.0000   1.0000   1.0000   1.0000   1.0000   1.0000   1.0000
     0.0000   0.0000   0.0000   0.0000

          k = 0.1667 0.2887 0.0000 (  7027 PWs)   bands (ev):

   -11.7933 -11.6057  -1.1013  -1.0953   0.4698   0.4801   0.5123   2.0764
    12.0421  12.6674  12.8608  16.6855

     occupation numbers 
     1.0000   1.0000   1.0000   1.0000   1.0000   1.0000   1.0000   1.0000
     0.0000   0.0000   0.0000   0.0000

          k = 0.1667 0.2887 0.1223 (  7016 PWs)   bands (ev):

   -11.7478 -11.6540  -1.1060  -1.1014   0.4773   0.4937   0.8472   1.6304
    12.1461  12.4787  13.9426  16.1743

     occupation numbers 
     1.0000   1.0000   1.0000   1.0000   1.0000   1.0000   1.0000   1.0000
     0.0000   0.0000   0.0000   0.0000

          k = 0.1667 0.3849-0.0000 (  7040 PWs)   bands (ev):

   -11.0259 -10.8712  -2.4662  -2.4302  -0.3991  -0.3501   1.6074   3.0090
    11.1486  11.5195  13.3332  16.7086

     occupation numbers 
     1.0000   1.0000   1.0000   1.0000   1.0000   1.0000   1.0000   1.0000
     0.0000   0.0000   0.0000   0.0000

          k = 0.1667 0.3849 0.1223 (  7044 PWs)   bands (ev):

   -10.9881 -10.9108  -2.4598  -2.4418  -0.3887  -0.3643   1.9301   2.6262
    11.0938  11.3126  14.4894  16.3289

     occupation numbers 
     1.0000   1.0000   1.0000   1.0000   1.0000   1.0000   1.0000   1.0000
     0.0000   0.0000   0.0000   0.0000

          k = 0.1667 0.4811-0.0000 (  7040 PWs)   bands (ev):

   -10.2747 -10.1727  -3.6641  -3.6053  -0.9232  -0.8674   2.8083   3.8677
     9.6283  10.3460  14.7509  16.5097

     occupation numbers 
     1.0000   1.0000   1.0000   1.0000   1.0000   1.0000   1.0000   1.0000
     0.0000   0.0000   0.0000   0.0000

          k = 0.1667 0.4811 0.1223 (  7046 PWs)   bands (ev):

   -10.2495 -10.1985  -3.6517  -3.6223  -0.9108  -0.8828   3.0682   3.5995
     9.7030  10.0678  15.5017  16.3800

     occupation numbers 
     1.0000   1.0000   1.0000   1.0000   1.0000   1.0000   1.0000   1.0000
     0.0000   0.0000   0.0000   0.0000

          k = 0.1667 0.5773-0.0000 (  7063 PWs)   bands (ev):

    -9.9139  -9.8656  -4.1711  -4.1089  -1.0958  -1.0376   3.4774   4.1897
     8.9576   9.7820  15.6078  16.4318

     occupation numbers 
     1.0000   1.0000   1.0000   1.0000   1.0000   1.0000   1.0000   1.0000
     0.0000   0.0000   0.0000   0.0000

          k = 0.1667 0.5773 0.1223 (  7048 PWs)   bands (ev):

    -9.9017  -9.8775  -4.1581  -4.1270  -1.0827  -1.0535   3.6724   4.0336
     9.0461   9.4612  16.0331  16.3964

     occupation numbers 
     1.0000   1.0000   1.0000   1.0000   1.0000   1.0000   1.0000   1.0000
     0.0000   0.0000   0.0000   0.0000

          k = 0.2500 0.4330 0.0000 (  7043 PWs)   bands (ev):

   -10.3086 -10.1968  -3.1905  -3.1609  -1.4785  -1.4376   2.7384   3.8476
    10.0193  10.4437  14.8143  16.7699

     occupation numbers 
     1.0000   1.0000   1.0000   1.0000   1.0000   1.0000   1.0000   1.0000
     0.0000   0.0000   0.0000   0.0000

          k = 0.2500 0.4330 0.1223 (  7057 PWs)   bands (ev):

   -10.2811 -10.2252  -3.1846  -3.1700  -1.4706  -1.4502   3.0077   3.5630
    10.0226  10.2524  15.6705  16.7222

     occupation numbers 
     1.0000   1.0000   1.0000   1.0000   1.0000   1.0000   1.0000   1.0000
     0.0000   0.0000   0.0000   0.0000

          k = 0.2500 0.5292-0.0000 (  7061 PWs)   bands (ev):

    -9.7723  -9.7202  -3.7279  -3.6537  -2.0887  -2.0425   3.7341   4.3577
     9.2135   9.6489  15.9300  16.3432

     occupation numbers 
     1.0000   1.0000   1.0000   1.0000   1.0000   1.0000   1.0000   1.0000
     0.0000   0.0000   0.0000   0.0000

          k = 0.2500 0.5292 0.1223 (  7059 PWs)   bands (ev):

    -9.7592  -9.7332  -3.7108  -3.6737  -2.0796  -2.0565   3.9122   4.2287
     9.2092   9.4346  16.3196  16.8264

     occupation numbers 
     1.0000   1.0000   1.0000   1.0000   1.0000   1.0000   1.0000   1.0000
     0.0000   0.0000   0.0000   0.0000

          k = 0.3333 0.5773 0.0000 (  7071 PWs)   bands (ev):

    -9.5532  -9.5532  -3.5411  -3.4138  -2.7455  -2.7454   4.3435   4.3435
     9.2254   9.2254  15.3301  17.5724

     occupation numbers 
     1.0000   1.0000   1.0000   1.0000   1.0000   1.0000   1.0000   1.0000
     0.0000   0.0000   0.0000   0.0000

          k = 0.3333 0.5773 0.1223 (  7062 PWs)   bands (ev):

    -9.5530  -9.5530  -3.5098  -3.4462  -2.7488  -2.7488   4.3855   4.3855
     9.1039   9.1039  15.8541  17.9998

     occupation numbers 
     1.0000   1.0000   1.0000   1.0000   1.0000   1.0000   1.0000   1.0000
     0.0000   0.0000   0.0000   0.0000

     the Fermi energy is     6.4236 ev

!    total energy              =     -53.65664207 Ry
     estimated scf accuracy    <       0.00000041 Ry
     smearing contrib. (-TS)   =       0.00000000 Ry
     internal energy E=F+TS    =     -53.65664207 Ry

     The total energy is F=E-TS. E is the sum of the following terms:
     one-electron contribution =     -18.10309664 Ry
     hartree contribution      =      17.27193794 Ry
     xc contribution           =     -17.33182187 Ry
     ewald contribution        =     -35.46873906 Ry
     DFT-D3 Dispersion         =      -0.02492244 Ry

     convergence has been achieved in   1 iterations

     Forces acting on atoms (cartesian axes, Ry/au):

     atom    1 type  1   force =    -0.00000000   -0.00000000   -0.00000000
     atom    2 type  2   force =     0.00000000   -0.00000000    0.00000000
     atom    3 type  2   force =     0.00000000    0.00000000   -0.00000000
     atom    4 type  1   force =     0.00000000    0.00000000   -0.00000000
     The non-local contrib.  to forces
     atom    1 type  1   force =     0.00000000   -0.00000000    0.00000000
     atom    2 type  2   force =     0.00000000    0.00000000    0.00000000
     atom    3 type  2   force =     0.00000000    0.00000000    0.00000000
     atom    4 type  1   force =    -0.00000000    0.00000000   -0.00000000
     The ionic contribution  to forces
     atom    1 type  1   force =     0.00000773   -0.00000446   -0.00000000
     atom    2 type  2   force =    -0.00000774    0.00000447   -0.00000000
     atom    3 type  2   force =     0.00000774   -0.00000447    0.00000000
     atom    4 type  1   force =    -0.00000773    0.00000446    0.00000000
     The local contribution  to forces
     atom    1 type  1   force =    -0.00000000   -0.00000000    0.00000000
     atom    2 type  2   force =    -0.00003346    0.00001932    0.00000000
     atom    3 type  2   force =     0.00000000    0.00000000    0.00000000
     atom    4 type  1   force =     0.00000418   -0.00000241    0.00000000
     The core correction contribution to forces
     atom    1 type  1   force =    -0.00000000   -0.00000001    0.00000000
     atom    2 type  2   force =     0.00000141   -0.00000084    0.00000000
     atom    3 type  2   force =    -0.00000001   -0.00000002   -0.00000000
     atom    4 type  1   force =     0.00000021   -0.00000013    0.00000000
     The Hubbard contrib.    to forces
     atom    1 type  1   force =     0.00000000    0.00000000    0.00000000
     atom    2 type  2   force =     0.00000000    0.00000000    0.00000000
     atom    3 type  2   force =     0.00000000    0.00000000    0.00000000
     atom    4 type  1   force =     0.00000000    0.00000000    0.00000000
     The SCF correction term to forces
     atom    1 type  1   force =     0.00000000   -0.00000000    0.00000000
     atom    2 type  2   force =     0.00000000   -0.00000000    0.00000000
     atom    3 type  2   force =    -0.00000000    0.00000000   -0.00000000
     atom    4 type  1   force =    -0.00000000    0.00000000   -0.00000000

     DFT-D3 dispersion contribution to forces:
     atom    1 type  1   force =     0.00000000   -0.00000000    0.00000000
     atom    2 type  2   force =    -0.00000000    0.00000000   -0.00000000
     atom    3 type  2   force =     0.00000000   -0.00000000    0.00000000
     atom    4 type  1   force =    -0.00000000    0.00000000    0.00000000

     Total force =     0.000000     Total SCF correction =     0.000000

     DFT-D3 dispersion Force =     0.000000


     Computing stress (Cartesian axis) and pressure

          total   stress  (Ry/bohr**3)                   (kbar)     P=        0.90
   0.00000423   0.00000000   0.00000000            0.62        0.00        0.00
   0.00000000   0.00000423  -0.00000000            0.00        0.62       -0.00
   0.00000000  -0.00000000   0.00000987            0.00       -0.00        1.45

     kinetic stress (kbar)  14156.81      0.00      0.00
                                0.00  14156.81     -0.00
                                0.00     -0.00  15474.96

     local   stress (kbar) -19115.50      0.01      0.00
                                0.01 -19115.49      0.00
                                0.00      0.00  21103.94

     nonloc. stress (kbar)  -2330.04      0.00     -0.00
                                0.00  -2330.04      0.00
                               -0.00      0.00  -2266.60

     hartree stress (kbar)   7660.28     -0.00      0.00
                               -0.00   7660.28     -0.00
                                0.00     -0.00  -5212.96

     exc-cor stress (kbar)  -1411.27     -0.00     -0.00
                               -0.00  -1411.27     -0.00
                               -0.00     -0.00  -1509.57

     corecor stress (kbar)  -1579.04      0.00      0.00
                                0.00  -1579.04     -0.00
                                0.00     -0.00  -1550.27

     ewald   stress (kbar)   2630.54     -0.02     -0.00
                               -0.02   2630.51     -0.00
                               -0.00     -0.00 -26017.49

     hubbard stress (kbar)      0.00      0.00      0.00
                                0.00      0.00      0.00
                                0.00      0.00      0.00

     DFT-D   stress (kbar)    -11.15      0.00      0.00
                                0.00    -11.15     -0.00
                               -0.00     -0.00    -20.57

     XDM     stress (kbar)      0.00      0.00      0.00
                                0.00      0.00      0.00
                                0.00      0.00      0.00

     dft-nl  stress (kbar)      0.00      0.00      0.00
                                0.00      0.00      0.00
                                0.00      0.00      0.00

     TS-vdW  stress (kbar)      0.00      0.00      0.00
                                0.00      0.00      0.00
                                0.00      0.00      0.00

     MDB     stress (kbar)      0.00      0.00      0.00
                                0.00      0.00      0.00
                                0.00      0.00      0.00

     3D-RISM stress (kbar)      0.00      0.00      0.00
                                0.00      0.00      0.00
                                0.00      0.00      0.00

     Energy error            =      2.1E-08 Ry
     Gradient error          =      9.0E-22 Ry/Bohr
     Cell gradient error     =      1.5E+00 kbar

     number of scf cycles    =   2
     number of bfgs steps    =   1

     enthalpy           old  =     -53.6566420479 Ry
     enthalpy           new  =     -53.6566420690 Ry

     CASE: enthalpy          _new < enthalpy          _old

     new trust radius        =       0.0002296100 bohr
     new conv_thr            =       0.0000000100 Ry

     new unit-cell volume =    251.42073 a.u.^3 (    37.25671 Ang^3 )
     density =      2.13937 g/cm^3

CELL_PARAMETERS (alat=  4.74000000)
   1.000113721   0.000000000   0.000000000
  -0.500056860   0.866123889  -0.000000000
  -0.000000000   0.000000000   2.725440185

ATOMIC_POSITIONS (crystal)
B             0.0000000000        0.0000000000        0.0000000000    0   0   0
N             0.6666670000        0.3333330000        0.0000000000    0   0   0
N            -0.0000000000       -0.0000000000        0.5000000000
B             0.6666670000        0.3333330000        0.5000000000



     Writing config-only to output data dir ./tmp/BNBULK_AA1_PBE_vdW.save/
     NEW-OLD atomic charge density approx. for the potential
     extrapolated charge   16.00296, renormalised to   16.00000

     total cpu time spent up to now is       20.4 secs

     Self-consistent Calculation

     iteration #  1     ecut=   140.00 Ry     beta= 0.70
     Davidson diagonalization with overlap

---- Real-time Memory Report at c_bands before calling an iterative solver
             0 MiB given to the printing process from OS
             0 MiB allocation reported by mallinfo(arena+hblkhd)
             0 MiB available memory on the node where the printing process lives
------------------
     ethr =  1.00E-06,  avg # of iterations =  1.3

     Threshold (ethr) on eigenvalues was too large:
     Diagonalizing with lowered threshold

     Davidson diagonalization with overlap

---- Real-time Memory Report at c_bands before calling an iterative solver
             0 MiB given to the printing process from OS
             0 MiB allocation reported by mallinfo(arena+hblkhd)
             0 MiB available memory on the node where the printing process lives
------------------
     ethr =  2.30E-08,  avg # of iterations =  1.1

     total cpu time spent up to now is       22.4 secs

     total energy              =     -53.65663928 Ry
     estimated scf accuracy    <       0.00000422 Ry

     iteration #  2     ecut=   140.00 Ry     beta= 0.70
     Davidson diagonalization with overlap

---- Real-time Memory Report at c_bands before calling an iterative solver
             0 MiB given to the printing process from OS
             0 MiB allocation reported by mallinfo(arena+hblkhd)
             0 MiB available memory on the node where the printing process lives
------------------
     ethr =  2.63E-08,  avg # of iterations =  2.7

     total cpu time spent up to now is       23.5 secs

     total energy              =     -53.65664189 Ry
     estimated scf accuracy    <       0.00000489 Ry

     iteration #  3     ecut=   140.00 Ry     beta= 0.70
     Davidson diagonalization with overlap

---- Real-time Memory Report at c_bands before calling an iterative solver
             0 MiB given to the printing process from OS
             0 MiB allocation reported by mallinfo(arena+hblkhd)
             0 MiB available memory on the node where the printing process lives
------------------
     ethr =  2.63E-08,  avg # of iterations =  1.2

     total cpu time spent up to now is       24.3 secs

     total energy              =     -53.65664220 Ry
     estimated scf accuracy    <       0.00000039 Ry

     iteration #  4     ecut=   140.00 Ry     beta= 0.70
     Davidson diagonalization with overlap

---- Real-time Memory Report at c_bands before calling an iterative solver
             0 MiB given to the printing process from OS
             0 MiB allocation reported by mallinfo(arena+hblkhd)
             0 MiB available memory on the node where the printing process lives
------------------
     ethr =  2.46E-09,  avg # of iterations =  2.9

     total cpu time spent up to now is       25.3 secs

     total energy              =     -53.65664230 Ry
     estimated scf accuracy    <       0.00000002 Ry

     iteration #  5     ecut=   140.00 Ry     beta= 0.70
     Davidson diagonalization with overlap

---- Real-time Memory Report at c_bands before calling an iterative solver
             0 MiB given to the printing process from OS
             0 MiB allocation reported by mallinfo(arena+hblkhd)
             0 MiB available memory on the node where the printing process lives
------------------
     ethr =  1.22E-10,  avg # of iterations =  3.2

     total cpu time spent up to now is       26.1 secs

     total energy              =     -53.65664231 Ry
     estimated scf accuracy    <       0.00000002 Ry

     iteration #  6     ecut=   140.00 Ry     beta= 0.70
     Davidson diagonalization with overlap

---- Real-time Memory Report at c_bands before calling an iterative solver
             0 MiB given to the printing process from OS
             0 MiB allocation reported by mallinfo(arena+hblkhd)
             0 MiB available memory on the node where the printing process lives
------------------
     ethr =  1.05E-10,  avg # of iterations =  1.0

     total cpu time spent up to now is       26.8 secs

     total energy              =     -53.65664230 Ry
     estimated scf accuracy    <       0.00000002 Ry

     iteration #  7     ecut=   140.00 Ry     beta= 0.70
     Davidson diagonalization with overlap

---- Real-time Memory Report at c_bands before calling an iterative solver
             0 MiB given to the printing process from OS
             0 MiB allocation reported by mallinfo(arena+hblkhd)
             0 MiB available memory on the node where the printing process lives
------------------
     ethr =  1.05E-10,  avg # of iterations =  1.6

     total cpu time spent up to now is       27.5 secs

     total energy              =     -53.65664230 Ry
     estimated scf accuracy    <       0.00000001 Ry

     iteration #  8     ecut=   140.00 Ry     beta= 0.70
     Davidson diagonalization with overlap

---- Real-time Memory Report at c_bands before calling an iterative solver
             0 MiB given to the printing process from OS
             0 MiB allocation reported by mallinfo(arena+hblkhd)
             0 MiB available memory on the node where the printing process lives
------------------
     ethr =  8.32E-11,  avg # of iterations =  1.0

     total cpu time spent up to now is       28.2 secs

     End of self-consistent calculation

          k = 0.0000 0.0000 0.0000 (  7003 PWs)   bands (ev):

   -13.3225 -13.0869  -1.6605   0.1798   3.0504   3.0504   3.0780   3.0780
     9.5220  14.3415  16.0051  16.0064

     occupation numbers 
     1.0000   1.0000   1.0000   1.0000   1.0000   1.0000   1.0000   1.0000
     0.0000   0.0000   0.0000   0.0000

          k =-0.0000 0.0000 0.1223 (  7020 PWs)   bands (ev):

   -13.2659 -13.1482  -1.2672  -0.3632   3.0573   3.0573   3.0711   3.0711
    10.6089  12.8992  16.0311  16.0372

     occupation numbers 
     1.0000   1.0000   1.0000   1.0000   1.0000   1.0000   1.0000   1.0000
     0.0000   0.0000   0.0000   0.0000

          k =-0.0000 0.0962-0.0000 (  6985 PWs)   bands (ev):

   -13.1875 -12.9557  -1.4750   0.3482   2.4959   2.5183   2.7912   2.8221
     9.7684  14.2795  15.8185  16.0119

     occupation numbers 
     1.0000   1.0000   1.0000   1.0000   1.0000   1.0000   1.0000   1.0000
     0.0000   0.0000   0.0000   0.0000

          k =-0.0000 0.0962 0.1223 (  7009 PWs)   bands (ev):

   -13.1317 -13.0159  -1.0854  -0.1901   2.5036   2.5159   2.7989   2.8144
    10.8279  13.0176  15.9053  15.9896

     occupation numbers 
     1.0000   1.0000   1.0000   1.0000   1.0000   1.0000   1.0000   1.0000
     0.0000   0.0000   0.0000   0.0000

          k =-0.0000 0.1924-0.0000 (  7023 PWs)   bands (ev):

   -12.7898 -12.5695  -0.9252   0.8433   1.0888   1.1157   2.1604   2.1976
    10.4195  13.9650  15.4154  15.4973

     occupation numbers 
     1.0000   1.0000   1.0000   1.0000   1.0000   1.0000   1.0000   1.0000
     0.0000   0.0000   0.0000   0.0000

          k =-0.0000 0.1924 0.1223 (  7013 PWs)   bands (ev):

   -12.7367 -12.6266  -0.5499   0.3107   1.1039   1.1269   2.1697   2.1883
    11.3802  13.1740  15.4964  15.5658

     occupation numbers 
     1.0000   1.0000   1.0000   1.0000   1.0000   1.0000   1.0000   1.0000
     0.0000   0.0000   0.0000   0.0000

          k =-0.0000 0.2886-0.0000 (  7047 PWs)   bands (ev):

   -12.1560 -11.9559  -0.6993  -0.6554  -0.0371   1.4294   1.4722   1.6281
    11.3646  13.0707  13.6800  15.0078

     occupation numbers 
     1.0000   1.0000   1.0000   1.0000   1.0000   1.0000   1.0000   1.0000
     0.0000   0.0000   0.0000   0.0000

          k =-0.0000 0.2886 0.1223 (  7005 PWs)   bands (ev):

   -12.1076 -12.0076  -0.7006  -0.6744   0.3404   1.1578   1.4400   1.4614
    11.9881  12.8143  14.1232  14.9258

     occupation numbers 
     1.0000   1.0000   1.0000   1.0000   1.0000   1.0000   1.0000   1.0000
     0.0000   0.0000   0.0000   0.0000

          k =-0.0000 0.3849-0.0000 (  7024 PWs)   bands (ev):

   -11.3529 -11.1852  -2.4807  -2.4197   0.8015   0.8480   1.1234   2.6088
    11.3233  12.0044  12.5012  14.6803

     occupation numbers 
     1.0000   1.0000   1.0000   1.0000   1.0000   1.0000   1.0000   1.0000
     0.0000   0.0000   0.0000   0.0000

          k =-0.0000 0.3849 0.1223 (  7034 PWs)   bands (ev):

[...]

   -12.7371 -12.6271  -0.5500   0.3103   1.1047   1.1276   2.1705   2.1891
    11.3808  13.1750  15.4992  15.5690

     occupation numbers 
     1.0000   1.0000   1.0000   1.0000   1.0000   1.0000   1.0000   1.0000
     0.0000   0.0000   0.0000   0.0000

          k =-0.0000 0.2887-0.0000 (  7051 PWs)   bands (ev):

   -12.1563 -11.9562  -0.6987  -0.6549  -0.0369   1.4300   1.4728   1.6278
    11.3653  13.0724  13.6823  15.0109

     occupation numbers 
     1.0000   1.0000   1.0000   1.0000   1.0000   1.0000   1.0000   1.0000
     0.0000   0.0000   0.0000   0.0000

          k =-0.0000 0.2887 0.1223 (  7007 PWs)   bands (ev):

   -12.1079 -12.0079  -0.7001  -0.6739   0.3404   1.1576   1.4407   1.4620
    11.9891  12.8159  14.1254  14.9286

     occupation numbers 
     1.0000   1.0000   1.0000   1.0000   1.0000   1.0000   1.0000   1.0000
     0.0000   0.0000   0.0000   0.0000

          k =-0.0000 0.3849-0.0000 (  7024 PWs)   bands (ev):

   -11.3530 -11.1854  -2.4804  -2.4194   0.8020   0.8485   1.1237   2.6087
    11.3251  12.0060  12.5024  14.6833

     occupation numbers 
     1.0000   1.0000   1.0000   1.0000   1.0000   1.0000   1.0000   1.0000
     0.0000   0.0000   0.0000   0.0000

          k =-0.0000 0.3849 0.1223 (  7034 PWs)   bands (ev):

   -11.3122 -11.2284  -2.4687  -2.4379   0.8136   0.8368   1.4596   2.1956
    11.2991  11.6356  13.6371  14.5872

     occupation numbers 
     1.0000   1.0000   1.0000   1.0000   1.0000   1.0000   1.0000   1.0000
     0.0000   0.0000   0.0000   0.0000

          k =-0.0000 0.4811-0.0000 (  7010 PWs)   bands (ev):

   -10.5523 -10.4385  -3.9009  -3.8373   0.3900   0.4387   2.3663   3.5359
     9.5377  10.5943  13.5355  14.4763

     occupation numbers 
     1.0000   1.0000   1.0000   1.0000   1.0000   1.0000   1.0000   1.0000
     0.0000   0.0000   0.0000   0.0000

          k =-0.0000 0.4811 0.1223 (  7032 PWs)   bands (ev):

   -10.5242 -10.4674  -3.8879  -3.8561   0.4021   0.4264   2.6448   3.2296
     9.6827  10.2059  14.0421  14.4379

     occupation numbers 
     1.0000   1.0000   1.0000   1.0000   1.0000   1.0000   1.0000   1.0000
     0.0000   0.0000   0.0000   0.0000

          k = 0.0000-0.5773 0.0000 (  7032 PWs)   bands (ev):

   -10.1590 -10.1029  -4.4825  -4.4309   0.2474   0.2968   3.0523   3.9120
     8.7432   9.9403  13.9326  14.4059

     occupation numbers 
     1.0000   1.0000   1.0000   1.0000   1.0000   1.0000   1.0000   1.0000
     0.0000   0.0000   0.0000   0.0000

          k = 0.0000-0.5773 0.1223 (  7032 PWs)   bands (ev):

   -10.1448 -10.1168  -4.4728  -4.4470   0.2597   0.2844   3.2739   3.7082
     8.9122   9.5062  14.1821  14.3902

     occupation numbers 
     1.0000   1.0000   1.0000   1.0000   1.0000   1.0000   1.0000   1.0000
     0.0000   0.0000   0.0000   0.0000

          k = 0.0833 0.1443 0.0000 (  6991 PWs)   bands (ev):

   -12.9215 -12.6973  -1.1072   0.6795   1.5880   1.6002   2.2818   2.3136
    10.2208  14.0958  15.9452  16.0200

     occupation numbers 
     1.0000   1.0000   1.0000   1.0000   1.0000   1.0000   1.0000   1.0000
     0.0000   0.0000   0.0000   0.0000

          k = 0.0833 0.1443 0.1223 (  7013 PWs)   bands (ev):

   -12.8675 -12.7555  -0.7264   0.1488   1.5965   1.6069   2.2899   2.3057
    11.2202  13.1675  15.9571  16.0075

     occupation numbers 
     1.0000   1.0000   1.0000   1.0000   1.0000   1.0000   1.0000   1.0000
     0.0000   0.0000   0.0000   0.0000

          k = 0.0833 0.2406 0.0000 (  7016 PWs)   bands (ev):

   -12.4043 -12.1959  -0.3869   0.0996   0.1245   1.3214   1.4884   1.5279
    11.0385  13.5177  14.3815  15.7369

     occupation numbers 
     1.0000   1.0000   1.0000   1.0000   1.0000   1.0000   1.0000   1.0000
     0.0000   0.0000   0.0000   0.0000

          k = 0.0833 0.2406 0.1223 (  7006 PWs)   bands (ev):

   -12.3540 -12.2499  -0.0833   0.0969   0.1762   0.8465   1.4997   1.5190
    11.8481  13.0925  14.7518  15.6273

     occupation numbers 
     1.0000   1.0000   1.0000   1.0000   1.0000   1.0000   1.0000   1.0000
     0.0000   0.0000   0.0000   0.0000

          k = 0.0833 0.3368 0.0000 (  7022 PWs)   bands (ev):

   -11.6796 -11.4969  -1.6236  -1.5762   0.6442   0.7381   0.7845   2.2136
    12.1347  12.2339  12.6421  15.4064

     occupation numbers 
     1.0000   1.0000   1.0000   1.0000   1.0000   1.0000   1.0000   1.0000
     0.0000   0.0000   0.0000   0.0000

          k = 0.0833 0.3368 0.1223 (  7021 PWs)   bands (ev):

   -11.6352 -11.5440  -1.6165  -1.5922   0.7452   0.7698   1.0027   1.7744
    11.9452  12.2279  13.7598  15.2288

     occupation numbers 
     1.0000   1.0000   1.0000   1.0000   1.0000   1.0000   1.0000   1.0000
     0.0000   0.0000   0.0000   0.0000

          k = 0.0833 0.4330 0.0000 (  7037 PWs)   bands (ev):

   -10.8545 -10.7134  -3.2156  -3.1533   0.1843   0.2349   1.8764   3.2029
    10.3767  11.1756  13.3705  15.1430

     occupation numbers 
     1.0000   1.0000   1.0000   1.0000   1.0000   1.0000   1.0000   1.0000
     0.0000   0.0000   0.0000   0.0000

          k = 0.0833 0.4330 0.1223 (  7033 PWs)   bands (ev):

   -10.8200 -10.7494  -3.2028  -3.1716   0.1961   0.2215   2.1842   2.8443
    10.4528  10.8527  14.2390  15.0551

     occupation numbers 
     1.0000   1.0000   1.0000   1.0000   1.0000   1.0000   1.0000   1.0000
     0.0000   0.0000   0.0000   0.0000

          k = 0.0833 0.5292 0.0000 (  7050 PWs)   bands (ev):

   -10.2003 -10.1245  -4.2547  -4.1970  -0.1059  -0.0533   2.9641   3.9014
     9.0111  10.0797  14.3009  15.0021

     occupation numbers 
     1.0000   1.0000   1.0000   1.0000   1.0000   1.0000   1.0000   1.0000
     0.0000   0.0000   0.0000   0.0000

          k = 0.0833 0.5292 0.1223 (  7029 PWs)   bands (ev):

   -10.1814 -10.1435  -4.2432  -4.2143  -0.0934  -0.0670   3.2009   3.6729
     9.1579   9.6900  14.6721  14.9747

     occupation numbers 
     1.0000   1.0000   1.0000   1.0000   1.0000   1.0000   1.0000   1.0000
     0.0000   0.0000   0.0000   0.0000

          k = 0.1667 0.2887 0.0000 (  7027 PWs)   bands (ev):

   -11.7925 -11.6049  -1.1005  -1.0945   0.4706   0.4802   0.5131   2.0763
    12.0405  12.6672  12.8604  16.6851

     occupation numbers 
     1.0000   1.0000   1.0000   1.0000   1.0000   1.0000   1.0000   1.0000
     0.0000   0.0000   0.0000   0.0000

          k = 0.1667 0.2887 0.1223 (  7016 PWs)   bands (ev):

   -11.7470 -11.6533  -1.1052  -1.1006   0.4782   0.4945   0.8473   1.6304
    12.1454  12.4784  13.9411  16.1729

     occupation numbers 
     1.0000   1.0000   1.0000   1.0000   1.0000   1.0000   1.0000   1.0000
     0.0000   0.0000   0.0000   0.0000

          k = 0.1667 0.3849 0.0000 (  7040 PWs)   bands (ev):

   -11.0249 -10.8704  -2.4656  -2.4296  -0.3983  -0.3493   1.6077   3.0092
    11.1479  11.5191  13.3317  16.7084

     occupation numbers 
     1.0000   1.0000   1.0000   1.0000   1.0000   1.0000   1.0000   1.0000
     0.0000   0.0000   0.0000   0.0000

          k = 0.1667 0.3849 0.1223 (  7044 PWs)   bands (ev):

   -10.9872 -10.9099  -2.4592  -2.4411  -0.3880  -0.3635   1.9304   2.6263
    11.0933  11.3122  14.4878  16.3279

     occupation numbers 
     1.0000   1.0000   1.0000   1.0000   1.0000   1.0000   1.0000   1.0000
     0.0000   0.0000   0.0000   0.0000

          k = 0.1667 0.4811 0.0000 (  7040 PWs)   bands (ev):

   -10.2737 -10.1717  -3.6636  -3.6049  -0.9225  -0.8667   2.8088   3.8683
     9.6273  10.3452  14.7497  16.5096

     occupation numbers 
     1.0000   1.0000   1.0000   1.0000   1.0000   1.0000   1.0000   1.0000
     0.0000   0.0000   0.0000   0.0000

          k = 0.1667 0.4811 0.1223 (  7047 PWs)   bands (ev):

   -10.2485 -10.1975  -3.6512  -3.6218  -0.9101  -0.8821   3.0687   3.6000
     9.7021  10.0670  15.5007  16.3796

     occupation numbers 
     1.0000   1.0000   1.0000   1.0000   1.0000   1.0000   1.0000   1.0000
     0.0000   0.0000   0.0000   0.0000

          k = 0.1667 0.5773 0.0000 (  7063 PWs)   bands (ev):

    -9.9128  -9.8645  -4.1708  -4.1085  -1.0951  -1.0369   3.4781   4.1905
     8.9564   9.7809  15.6072  16.4317

     occupation numbers 
     1.0000   1.0000   1.0000   1.0000   1.0000   1.0000   1.0000   1.0000
     0.0000   0.0000   0.0000   0.0000

          k = 0.1667 0.5773 0.1223 (  7052 PWs)   bands (ev):

    -9.9006  -9.8764  -4.1577  -4.1266  -1.0820  -1.0528   3.6731   4.0343
     9.0449   9.4601  16.0326  16.3961

     occupation numbers 
     1.0000   1.0000   1.0000   1.0000   1.0000   1.0000   1.0000   1.0000
     0.0000   0.0000   0.0000   0.0000

          k = 0.2500 0.4330 0.0000 (  7043 PWs)   bands (ev):

   -10.3076 -10.1958  -3.1899  -3.1604  -1.4779  -1.4370   2.7389   3.8481
    10.0183  10.4430  14.8129  16.7684

     occupation numbers 
     1.0000   1.0000   1.0000   1.0000   1.0000   1.0000   1.0000   1.0000
     0.0000   0.0000   0.0000   0.0000

          k = 0.2500 0.4330 0.1223 (  7057 PWs)   bands (ev):

   -10.2800 -10.2241  -3.1840  -3.1694  -1.4700  -1.4496   3.0081   3.5635
    10.0217  10.2517  15.6691  16.7208

     occupation numbers 
     1.0000   1.0000   1.0000   1.0000   1.0000   1.0000   1.0000   1.0000
     0.0000   0.0000   0.0000   0.0000

          k = 0.2500 0.5292 0.0000 (  7061 PWs)   bands (ev):

    -9.7712  -9.7190  -3.7274  -3.6533  -2.0881  -2.0420   3.7349   4.3586
     9.2122   9.6478  15.9288  16.3423

     occupation numbers 
     1.0000   1.0000   1.0000   1.0000   1.0000   1.0000   1.0000   1.0000
     0.0000   0.0000   0.0000   0.0000

          k = 0.2500 0.5292 0.1223 (  7059 PWs)   bands (ev):

    -9.7581  -9.7320  -3.7103  -3.6733  -2.0791  -2.0559   3.9130   4.2295
     9.2080   9.4335  16.3184  16.8255

     occupation numbers 
     1.0000   1.0000   1.0000   1.0000   1.0000   1.0000   1.0000   1.0000
     0.0000   0.0000   0.0000   0.0000

          k = 0.3333 0.5773 0.0000 (  7071 PWs)   bands (ev):

    -9.5520  -9.5520  -3.5405  -3.4134  -2.7450  -2.7450   4.3445   4.3445
     9.2241   9.2241  15.3289  17.5718

     occupation numbers 
     1.0000   1.0000   1.0000   1.0000   1.0000   1.0000   1.0000   1.0000
     0.0000   0.0000   0.0000   0.0000

          k = 0.3333 0.5773 0.1223 (  7062 PWs)   bands (ev):

    -9.5519  -9.5519  -3.5093  -3.4457  -2.7484  -2.7484   4.3865   4.3865
     9.1026   9.1026  15.8528  17.9999

     occupation numbers 
     1.0000   1.0000   1.0000   1.0000   1.0000   1.0000   1.0000   1.0000
     0.0000   0.0000   0.0000   0.0000

     the Fermi energy is     6.4239 ev

!    total energy              =     -53.65664238 Ry
     estimated scf accuracy    <          3.7E-11 Ry
     smearing contrib. (-TS)   =       0.00000000 Ry
     internal energy E=F+TS    =     -53.65664238 Ry

     The total energy is F=E-TS. E is the sum of the following terms:
     one-electron contribution =     -18.10776386 Ry
     hartree contribution      =      17.27170211 Ry
     xc contribution           =     -17.33102342 Ry
     ewald contribution        =     -35.46463799 Ry
     DFT-D3 Dispersion         =      -0.02491922 Ry

     convergence has been achieved in  10 iterations

     Forces acting on atoms (cartesian axes, Ry/au):

     atom    1 type  1   force =    -0.00000000    0.00000000   -0.00000000
     atom    2 type  2   force =     0.00000000    0.00000000    0.00000000
     atom    3 type  2   force =    -0.00000000   -0.00000000   -0.00000000
     atom    4 type  1   force =     0.00000000    0.00000000    0.00000000
     The non-local contrib.  to forces
     atom    1 type  1   force =    -0.00000000   -0.00000000   -0.00000000
     atom    2 type  2   force =    -0.00000000    0.00000000   -0.00000000
     atom    3 type  2   force =     0.00000000   -0.00000000    0.00000000
     atom    4 type  1   force =     0.00000000    0.00000000    0.00000000
     The ionic contribution  to forces
     atom    1 type  1   force =     0.00000773   -0.00000446   -0.00000000
     atom    2 type  2   force =    -0.00000774    0.00000447   -0.00000000
     atom    3 type  2   force =     0.00000774   -0.00000447    0.00000000
     atom    4 type  1   force =    -0.00000773    0.00000446    0.00000000
     The local contribution  to forces
     atom    1 type  1   force =    -0.00000000   -0.00000000    0.00000000
     atom    2 type  2   force =    -0.00003345    0.00001931    0.00000000
     atom    3 type  2   force =     0.00000000    0.00000000    0.00000000
     atom    4 type  1   force =     0.00000417   -0.00000241    0.00000000
     The core correction contribution to forces
     atom    1 type  1   force =    -0.00000000   -0.00000001    0.00000000
     atom    2 type  2   force =     0.00000141   -0.00000084    0.00000000
     atom    3 type  2   force =    -0.00000001   -0.00000002   -0.00000000
     atom    4 type  1   force =     0.00000021   -0.00000013    0.00000000
     The Hubbard contrib.    to forces
     atom    1 type  1   force =     0.00000000    0.00000000    0.00000000
     atom    2 type  2   force =     0.00000000    0.00000000    0.00000000
     atom    3 type  2   force =     0.00000000    0.00000000    0.00000000
     atom    4 type  1   force =     0.00000000    0.00000000    0.00000000
     The SCF correction term to forces
     atom    1 type  1   force =     0.00000000   -0.00000000    0.00000000
     atom    2 type  2   force =    -0.00000000    0.00000000    0.00000000
     atom    3 type  2   force =     0.00000000   -0.00000000    0.00000000
     atom    4 type  1   force =     0.00000000   -0.00000000    0.00000000

     DFT-D3 dispersion contribution to forces:
     atom    1 type  1   force =     0.00000000   -0.00000000   -0.00000000
     atom    2 type  2   force =    -0.00000000    0.00000000    0.00000000
     atom    3 type  2   force =     0.00000000   -0.00000000    0.00000000
     atom    4 type  1   force =    -0.00000000    0.00000000   -0.00000000

     Total force =     0.000000     Total SCF correction =     0.000000

     DFT-D3 dispersion Force =     0.000000


     Computing stress (Cartesian axis) and pressure

          total   stress  (Ry/bohr**3)                   (kbar)     P=       -0.06
   0.00000030  -0.00000000  -0.00000000            0.04       -0.00       -0.00
   0.00000000   0.00000030  -0.00000000            0.00        0.04       -0.00
  -0.00000000  -0.00000000  -0.00000178           -0.00       -0.00       -0.26

     kinetic stress (kbar)  14154.20     -0.00      0.00
                               -0.00  14154.20      0.00
                                0.00      0.00  15471.46

     local   stress (kbar) -19116.95      0.01     -0.00
                                0.01 -19116.94      0.00
                               -0.00      0.00  21105.57

     nonloc. stress (kbar)  -2329.26     -0.00      0.00
                               -0.00  -2329.26     -0.00
                               -0.00      0.00  -2265.61

     hartree stress (kbar)   7660.36      0.00     -0.00
                                0.00   7660.36     -0.00
                               -0.00     -0.00  -5214.17

     exc-cor stress (kbar)  -1411.01     -0.00      0.00
                               -0.00  -1411.01     -0.00
                                0.00     -0.00  -1509.30

     corecor stress (kbar)  -1578.87      0.00      0.00
                                0.00  -1578.87     -0.00
                                0.00     -0.00  -1550.09

     ewald   stress (kbar)   2632.72     -0.02      0.00
                               -0.02   2632.69     -0.00
                                0.00     -0.00 -26017.56

     hubbard stress (kbar)      0.00      0.00      0.00
                                0.00      0.00      0.00
                                0.00      0.00      0.00

     DFT-D   stress (kbar)    -11.15      0.00     -0.00
                                0.00    -11.15      0.00
                                0.00      0.00    -20.57

     XDM     stress (kbar)      0.00      0.00      0.00
                                0.00      0.00      0.00
                                0.00      0.00      0.00

     dft-nl  stress (kbar)      0.00      0.00      0.00
                                0.00      0.00      0.00
                                0.00      0.00      0.00

     TS-vdW  stress (kbar)      0.00      0.00      0.00
                                0.00      0.00      0.00
                                0.00      0.00      0.00

     MDB     stress (kbar)      0.00      0.00      0.00
                                0.00      0.00      0.00
                                0.00      0.00      0.00

     3D-RISM stress (kbar)      0.00      0.00      0.00
                                0.00      0.00      0.00
                                0.00      0.00      0.00


     Writing all to output data dir ./tmp/BNBULK_AA1_PBE_vdW.save/

     init_run     :      1.86s CPU      1.93s WALL (       2 calls)
     electrons    :     36.16s CPU     36.51s WALL (       5 calls)
     update_pot   :      1.93s CPU      1.94s WALL (       3 calls)
     forces       :      6.76s CPU      6.80s WALL (       5 calls)
     force_dftd3  :      4.81s CPU      4.84s WALL (       5 calls)
     stress       :     10.85s CPU     11.14s WALL (       5 calls)
     stres_dftd3  :      4.65s CPU      4.67s WALL (       5 calls)

     Called by init_run:
     wfcinit      :      0.69s CPU      0.72s WALL (       2 calls)
     wfcinit:atom :      0.01s CPU      0.01s WALL (      76 calls)
     wfcinit:wfcr :      0.62s CPU      0.65s WALL (      76 calls)
     potinit      :      0.30s CPU      0.31s WALL (       2 calls)
     hinit0       :      0.78s CPU      0.80s WALL (       2 calls)

     Called by electrons:
     c_bands      :     29.45s CPU     29.60s WALL (      33 calls)
     sum_band     :      3.16s CPU      3.26s WALL (      33 calls)
     v_of_rho     :      0.30s CPU      0.34s WALL (      35 calls)
     v_h          :      0.02s CPU      0.02s WALL (      35 calls)
     v_xc         :      0.37s CPU      0.41s WALL (      45 calls)
     mix_rho      :      0.06s CPU      0.09s WALL (      33 calls)
     energy_dftd3 :      3.20s CPU      3.21s WALL (       5 calls)

     Called by c_bands:
     init_us_2    :      0.63s CPU      0.64s WALL (    2964 calls)
     init_us_2:cp :      0.63s CPU      0.63s WALL (    2964 calls)
     cegterg      :     28.35s CPU     28.43s WALL (    1254 calls)

     Called by sum_band:
     sum_band:wei :      0.00s CPU      0.00s WALL (      33 calls)
     sum_band:loo :      3.10s CPU      3.21s WALL (      33 calls)
     sum_band:buf :      0.06s CPU      0.06s WALL (    1254 calls)
     sum_band:ini :      0.24s CPU      0.24s WALL (    1254 calls)

     Called by *egterg:
     cdiaghg      :      0.97s CPU      1.01s WALL (    5122 calls)
     cegterg:over :      1.64s CPU      1.68s WALL (    4096 calls)
     cegterg:upda :      1.37s CPU      1.37s WALL (    4096 calls)
     cegterg:last :      1.87s CPU      1.52s WALL (    2953 calls)
     h_psi        :     21.90s CPU     22.11s WALL (    5426 calls)
     g_psi        :      0.17s CPU      0.23s WALL (    4096 calls)

     Called by h_psi:
     h_psi:calbec :      1.63s CPU      1.65s WALL (    5426 calls)
     vloc_psi     :     18.09s CPU     18.68s WALL (    5426 calls)
     add_vuspsi   :      1.99s CPU      1.55s WALL (    5426 calls)

     General routines
     calbec       :      2.02s CPU      2.04s WALL (    6376 calls)
     fft          :      0.37s CPU      0.40s WALL (     476 calls)
     ffts         :      0.01s CPU      0.01s WALL (      33 calls)
     fftw         :     18.45s CPU     19.00s WALL (  104462 calls)

     Parallel routines

     PWSCF        :     57.72s CPU     58.61s WALL


   This run was terminated on:   9:50: 4   7Apr2024            

=------------------------------------------------------------------------------=
   JOB DONE.
=------------------------------------------------------------------------------=
