
     Program PWSCF v.7.2 starts on  6Apr2024 at 18:41:12 

     This program is part of the open-source Quantum ESPRESSO suite
     for quantum simulation of materials; please cite
         "P. Giannozzi et al., J. Phys.:Condens. Matter 21 395502 (2009);
         "P. Giannozzi et al., J. Phys.:Condens. Matter 29 465901 (2017);
         "P. Giannozzi et al., J. Chem. Phys. 152 154105 (2020);
          URL http://www.quantum-espresso.org", 
     in publications or presentations arising from this work. More details at
     http://www.quantum-espresso.org/quote

     Parallel version (MPI & OpenMP), running on       8 processor cores
     Number of MPI processes:                 8
     Threads/MPI process:                     1

     MPI processes distributed on     1 nodes
     0 MiB available memory on the printing compute node when the environment starts

     Waiting for input...
     Reading input from standard input

     Current dimensions of program PWSCF are:
     Max number of different atomic species (ntypx) = 10
     Max number of k-points (npk) =  40000
     Max angular momentum in pseudopotentials (lmaxx) =  4

     File ./tmp/BNBULK_AA1_PBE_vdW_ts.update deleted, as requested

     File ./tmp/BNBULK_AA1_PBE_vdW_ts.bfgs deleted, as requested

     R & G space division:  proc/nbgrp/npool/nimage =       8
     Subspace diagonalization in iterative solution of the eigenvalue problem:
     a serial algorithm will be used


     Parallelization info
     --------------------
     sticks:   dense  smooth     PW     G-vecs:    dense   smooth      PW
     Min         107     107     31                 7025     7025    1093
     Max         109     109     32                 7033     7033    1102
     Sum         859     859    253                56215    56215    8789

     Using Slab Decomposition



     bravais-lattice index     =            4
     lattice parameter (alat)  =       4.7400  a.u.
     unit-cell volume          =     251.3875 (a.u.)^3
     number of atoms/cell      =            4
     number of atomic types    =            2
     number of electrons       =        16.00
     number of Kohn-Sham states=           12
     kinetic-energy cutoff     =     140.0000  Ry
     charge density cutoff     =     560.0000  Ry
     scf convergence threshold =      1.0E-06
     mixing beta               =       0.7000
     number of iterations used =            8  plain     mixing
     energy convergence thresh.=      1.0E-04
     force convergence thresh. =      1.0E-03
     press convergence thresh. =      5.0E-01
     Exchange-correlation= PBE
                           (   1   4   3   4   0   0   0)
     nstep                     =           50


     celldm(1)=   4.740000  celldm(2)=   0.000000  celldm(3)=   2.725700
     celldm(4)=   0.000000  celldm(5)=   0.000000  celldm(6)=   0.000000

     crystal axes: (cart. coord. in units of alat)
               a(1) = (   1.000000   0.000000   0.000000 )  
               a(2) = (  -0.500000   0.866025   0.000000 )  
               a(3) = (   0.000000   0.000000   2.725700 )  

     reciprocal axes: (cart. coord. in units 2 pi/alat)
               b(1) = (  1.000000  0.577350 -0.000000 )  
               b(2) = (  0.000000  1.154701  0.000000 )  
               b(3) = (  0.000000 -0.000000  0.366878 )  


     PseudoPot. # 1 for B  read from file:
     ../../../Pseudo/PBE/B.upf
     MD5 check sum: 72f82fc31bc892420d0cab7e25c88ab8
     Pseudo is Norm-conserving + core correction, Zval =  3.0
     Generated using ONCVPSP code by D. R. Hamann
     Using radial grid of 1534 points,  4 beta functions with: 
                l(1) =   0
                l(2) =   0
                l(3) =   1
                l(4) =   1

     PseudoPot. # 2 for N  read from file:
     ../../../Pseudo/PBE/N.upf
     MD5 check sum: d34365f73bb0e2ee98afc20ec3e87676
     Pseudo is Norm-conserving + core correction, Zval =  5.0
     Generated using ONCVPSP code by D. R. Hamann
     Using radial grid of 1058 points,  4 beta functions with: 
                l(1) =   0
                l(2) =   0
                l(3) =   1
                l(4) =   1

     atomic species   valence    mass     pseudopotential
        B              3.00    10.00000     B ( 1.00)
        N              5.00    14.00000     N ( 1.00)

     24 Sym. Ops., with inversion, found (12 have fractional translation)


                                    s                        frac. trans.

      isym =  1     identity                                     

 cryst.   s( 1) = (     1          0          0      )
                  (     0          1          0      )
                  (     0          0          1      )

 cart.    s( 1) = (  1.0000000  0.0000000  0.0000000 )
                  (  0.0000000  1.0000000  0.0000000 )
                  (  0.0000000  0.0000000  1.0000000 )


      isym =  2     180 deg rotation - cart. axis [0,0,1]        

 cryst.   s( 2) = (    -1          0          0      )    f =(  0.3333330 )
                  (     0         -1          0      )       ( -0.3333330 )
                  (     0          0          1      )       ( -0.5000000 )

 cart.    s( 2) = ( -1.0000000  0.0000000  0.0000000 )    f =(  0.4999995 )
                  (  0.0000000 -1.0000000  0.0000000 )       ( -0.2886748 )
                  (  0.0000000  0.0000000  1.0000000 )       ( -1.3628500 )


      isym =  3     180 deg rotation - cart. axis [0,1,0]        

 cryst.   s( 3) = (    -1          0          0      )
                  (     1          1          0      )
                  (     0          0         -1      )

 cart.    s( 3) = ( -1.0000000  0.0000000  0.0000000 )
                  (  0.0000000  1.0000000  0.0000000 )
                  (  0.0000000  0.0000000 -1.0000000 )


      isym =  4     180 deg rotation - cart. axis [1,0,0]        

 cryst.   s( 4) = (     1          0          0      )    f =(  0.3333340 )
                  (    -1         -1          0      )       ( -0.3333330 )
                  (     0          0         -1      )       (  0.5000000 )

 cart.    s( 4) = (  1.0000000  0.0000000  0.0000000 )    f =(  0.5000005 )
                  (  0.0000000 -1.0000000  0.0000000 )       ( -0.2886748 )
                  (  0.0000000  0.0000000 -1.0000000 )       (  1.3628500 )


      isym =  5      60 deg rotation - cryst. axis [0,0,1]       

 cryst.   s( 5) = (     1          1          0      )    f =(  0.3333340 )
                  (    -1          0          0      )       ( -0.3333330 )
                  (     0          0          1      )       ( -0.5000000 )

 cart.    s( 5) = (  0.5000000 -0.8660254  0.0000000 )    f =(  0.5000005 )
                  (  0.8660254  0.5000000  0.0000000 )       ( -0.2886748 )
                  (  0.0000000  0.0000000  1.0000000 )       ( -1.3628500 )


      isym =  6      60 deg rotation - cryst. axis [0,0,-1]      

 cryst.   s( 6) = (     0         -1          0      )    f =(  0.3333330 )
                  (     1          1          0      )       ( -0.3333340 )
                  (     0          0          1      )       ( -0.5000000 )

 cart.    s( 6) = (  0.5000000  0.8660254  0.0000000 )    f =(  0.5000000 )
                  ( -0.8660254  0.5000000  0.0000000 )       ( -0.2886757 )
                  (  0.0000000  0.0000000  1.0000000 )       ( -1.3628500 )


      isym =  7     120 deg rotation - cryst. axis [0,0,1]       

 cryst.   s( 7) = (     0          1          0      )
                  (    -1         -1          0      )
                  (     0          0          1      )

 cart.    s( 7) = ( -0.5000000 -0.8660254  0.0000000 )
                  (  0.8660254 -0.5000000  0.0000000 )
                  (  0.0000000  0.0000000  1.0000000 )


      isym =  8     120 deg rotation - cryst. axis [0,0,-1]      

 cryst.   s( 8) = (    -1         -1          0      )
                  (     1          0          0      )
                  (     0          0          1      )

 cart.    s( 8) = ( -0.5000000  0.8660254  0.0000000 )
                  ( -0.8660254 -0.5000000  0.0000000 )
                  (  0.0000000  0.0000000  1.0000000 )


      isym =  9     180 deg rotation - cryst. axis [1,-1,0]      

 cryst.   s( 9) = (     0         -1          0      )
                  (    -1          0          0      )
                  (     0          0         -1      )

 cart.    s( 9) = (  0.5000000 -0.8660254  0.0000000 )
                  ( -0.8660254 -0.5000000  0.0000000 )
                  (  0.0000000  0.0000000 -1.0000000 )


      isym = 10     180 deg rotation - cryst. axis [2,1,0]       

 cryst.   s(10) = (     1          1          0      )
                  (     0         -1          0      )
                  (     0          0         -1      )

 cart.    s(10) = (  0.5000000  0.8660254  0.0000000 )
                  (  0.8660254 -0.5000000  0.0000000 )
                  (  0.0000000  0.0000000 -1.0000000 )


      isym = 11     180 deg rotation - cryst. axis [0,1,0]       

 cryst.   s(11) = (    -1         -1          0      )    f =(  0.3333330 )
                  (     0          1          0      )       ( -0.3333340 )
                  (     0          0         -1      )       (  0.5000000 )

 cart.    s(11) = ( -0.5000000 -0.8660254  0.0000000 )    f =(  0.5000000 )
                  ( -0.8660254  0.5000000  0.0000000 )       ( -0.2886757 )
                  (  0.0000000  0.0000000 -1.0000000 )       (  1.3628500 )


      isym = 12     180 deg rotation - cryst. axis [1,1,0]       

 cryst.   s(12) = (     0          1          0      )    f =(  0.3333330 )
                  (     1          0          0      )       ( -0.3333330 )
                  (     0          0         -1      )       (  0.5000000 )

 cart.    s(12) = ( -0.5000000  0.8660254  0.0000000 )    f =(  0.4999995 )
                  (  0.8660254  0.5000000  0.0000000 )       ( -0.2886748 )
                  (  0.0000000  0.0000000 -1.0000000 )       (  1.3628500 )


      isym = 13     inversion                                    

 cryst.   s(13) = (    -1          0          0      )    f =(  0.3333330 )
                  (     0         -1          0      )       ( -0.3333330 )
                  (     0          0         -1      )       (  0.5000000 )

 cart.    s(13) = ( -1.0000000  0.0000000  0.0000000 )    f =(  0.4999995 )
                  (  0.0000000 -1.0000000  0.0000000 )       ( -0.2886748 )
                  (  0.0000000  0.0000000 -1.0000000 )       (  1.3628500 )


      isym = 14     inv. 180 deg rotation - cart. axis [0,0,1]   

 cryst.   s(14) = (     1          0          0      )
                  (     0          1          0      )
                  (     0          0         -1      )

 cart.    s(14) = (  1.0000000  0.0000000  0.0000000 )
                  (  0.0000000  1.0000000  0.0000000 )
                  (  0.0000000  0.0000000 -1.0000000 )


      isym = 15     inv. 180 deg rotation - cart. axis [0,1,0]   

 cryst.   s(15) = (     1          0          0      )    f =(  0.3333340 )
                  (    -1         -1          0      )       ( -0.3333330 )
                  (     0          0          1      )       ( -0.5000000 )

 cart.    s(15) = (  1.0000000  0.0000000  0.0000000 )    f =(  0.5000005 )
                  (  0.0000000 -1.0000000  0.0000000 )       ( -0.2886748 )
                  (  0.0000000  0.0000000  1.0000000 )       ( -1.3628500 )


      isym = 16     inv. 180 deg rotation - cart. axis [1,0,0]   

 cryst.   s(16) = (    -1          0          0      )
                  (     1          1          0      )
                  (     0          0          1      )

 cart.    s(16) = ( -1.0000000  0.0000000  0.0000000 )
                  (  0.0000000  1.0000000  0.0000000 )
                  (  0.0000000  0.0000000  1.0000000 )


      isym = 17     inv.  60 deg rotation - cryst. axis [0,0,1]  

 cryst.   s(17) = (    -1         -1          0      )
                  (     1          0          0      )
                  (     0          0         -1      )

 cart.    s(17) = ( -0.5000000  0.8660254  0.0000000 )
                  ( -0.8660254 -0.5000000  0.0000000 )
                  (  0.0000000  0.0000000 -1.0000000 )


      isym = 18     inv.  60 deg rotation - cryst. axis [0,0,-1] 

 cryst.   s(18) = (     0          1          0      )
                  (    -1         -1          0      )
                  (     0          0         -1      )

 cart.    s(18) = ( -0.5000000 -0.8660254  0.0000000 )
                  (  0.8660254 -0.5000000  0.0000000 )
                  (  0.0000000  0.0000000 -1.0000000 )


      isym = 19     inv. 120 deg rotation - cryst. axis [0,0,1]  

 cryst.   s(19) = (     0         -1          0      )    f =(  0.3333330 )
                  (     1          1          0      )       ( -0.3333340 )
                  (     0          0         -1      )       (  0.5000000 )

 cart.    s(19) = (  0.5000000  0.8660254  0.0000000 )    f =(  0.5000000 )
                  ( -0.8660254  0.5000000  0.0000000 )       ( -0.2886757 )
                  (  0.0000000  0.0000000 -1.0000000 )       (  1.3628500 )


      isym = 20     inv. 120 deg rotation - cryst. axis [0,0,-1] 

 cryst.   s(20) = (     1          1          0      )    f =(  0.3333340 )
                  (    -1          0          0      )       ( -0.3333330 )
                  (     0          0         -1      )       (  0.5000000 )

 cart.    s(20) = (  0.5000000 -0.8660254  0.0000000 )    f =(  0.5000005 )
                  (  0.8660254  0.5000000  0.0000000 )       ( -0.2886748 )
                  (  0.0000000  0.0000000 -1.0000000 )       (  1.3628500 )


      isym = 21     inv. 180 deg rotation - cryst. axis [1,-1,0] 

 cryst.   s(21) = (     0          1          0      )    f =(  0.3333330 )
                  (     1          0          0      )       ( -0.3333330 )
                  (     0          0          1      )       ( -0.5000000 )

 cart.    s(21) = ( -0.5000000  0.8660254  0.0000000 )    f =(  0.4999995 )
                  (  0.8660254  0.5000000  0.0000000 )       ( -0.2886748 )
                  (  0.0000000  0.0000000  1.0000000 )       ( -1.3628500 )


      isym = 22     inv. 180 deg rotation - cryst. axis [2,1,0]  

 cryst.   s(22) = (    -1         -1          0      )    f =(  0.3333330 )
                  (     0          1          0      )       ( -0.3333340 )
                  (     0          0          1      )       ( -0.5000000 )

 cart.    s(22) = ( -0.5000000 -0.8660254  0.0000000 )    f =(  0.5000000 )
                  ( -0.8660254  0.5000000  0.0000000 )       ( -0.2886757 )
                  (  0.0000000  0.0000000  1.0000000 )       ( -1.3628500 )


      isym = 23     inv. 180 deg rotation - cryst. axis [0,1,0]  

 cryst.   s(23) = (     1          1          0      )
                  (     0         -1          0      )
                  (     0          0          1      )

 cart.    s(23) = (  0.5000000  0.8660254  0.0000000 )
                  (  0.8660254 -0.5000000  0.0000000 )
                  (  0.0000000  0.0000000  1.0000000 )


      isym = 24     inv. 180 deg rotation - cryst. axis [1,1,0]  

 cryst.   s(24) = (     0         -1          0      )
                  (    -1          0          0      )
                  (     0          0          1      )

 cart.    s(24) = (  0.5000000 -0.8660254  0.0000000 )
                  ( -0.8660254 -0.5000000  0.0000000 )
                  (  0.0000000  0.0000000  1.0000000 )


     point group D_6h(6/mmm)
     there are 12 classes
     the character table:

       E     2C6   2C3   C2    3C2'  3C2'' i     2S3   2S6   s_h   3s_d  3s_v 
A_1g   1.00  1.00  1.00  1.00  1.00  1.00  1.00  1.00  1.00  1.00  1.00  1.00
A_2g   1.00  1.00  1.00  1.00 -1.00 -1.00  1.00  1.00  1.00  1.00 -1.00 -1.00
B_1g   1.00 -1.00  1.00 -1.00  1.00 -1.00  1.00 -1.00  1.00 -1.00  1.00 -1.00
B_2g   1.00 -1.00  1.00 -1.00 -1.00  1.00  1.00 -1.00  1.00 -1.00 -1.00  1.00
E_1g   2.00  1.00 -1.00 -2.00  0.00  0.00  2.00  1.00 -1.00 -2.00  0.00  0.00
E_2g   2.00 -1.00 -1.00  2.00  0.00  0.00  2.00 -1.00 -1.00  2.00  0.00  0.00
A_1u   1.00  1.00  1.00  1.00  1.00  1.00 -1.00 -1.00 -1.00 -1.00 -1.00 -1.00
A_2u   1.00  1.00  1.00  1.00 -1.00 -1.00 -1.00 -1.00 -1.00 -1.00  1.00  1.00
B_1u   1.00 -1.00  1.00 -1.00  1.00 -1.00 -1.00  1.00 -1.00  1.00 -1.00  1.00
B_2u   1.00 -1.00  1.00 -1.00 -1.00  1.00 -1.00  1.00 -1.00  1.00  1.00 -1.00
E_1u   2.00  1.00 -1.00 -2.00  0.00  0.00 -2.00 -1.00  1.00  2.00  0.00  0.00
E_2u   2.00 -1.00 -1.00  2.00  0.00  0.00 -2.00  1.00  1.00 -2.00  0.00  0.00

     the symmetry operations in each class and the name of the first element:

     E        1
          identity                                               
     2C6      5    6
           60 deg rotation - cryst. axis [0,0,1]                 
     2C3      7    8
          120 deg rotation - cryst. axis [0,0,1]                 
     C2       2
          180 deg rotation - cart. axis [0,0,1]                  
     3C2'     4   12   11
          180 deg rotation - cart. axis [1,0,0]                  
     3C2''    3    9   10
          180 deg rotation - cart. axis [0,1,0]                  
     i       13
          inversion                                              
     2S3     17   18
          inv.  60 deg rotation - cryst. axis [0,0,1]            
     2S6     19   20
          inv. 120 deg rotation - cryst. axis [0,0,1]            
     s_h     14
          inv. 180 deg rotation - cart. axis [0,0,1]             
     3s_d    16   24   23
          inv. 180 deg rotation - cart. axis [1,0,0]             
     3s_v    15   21   22
          inv. 180 deg rotation - cart. axis [0,1,0]             

   Cartesian axes

     site n.     atom                  positions (alat units)
         1           B   tau(   1) = (   0.0000000   0.0000000   0.0000000  )
         2           N   tau(   2) = (   0.5000005   0.2886748   0.0000000  )
         3           N   tau(   3) = (   0.0000000   0.0000000   1.3628500  )
         4           B   tau(   4) = (   0.5000005   0.2886748   1.3628500  )

   Crystallographic axes

     site n.     atom                  positions (cryst. coord.)
         1           B   tau(   1) = (  0.0000000  0.0000000  0.0000000  )
         2           N   tau(   2) = (  0.6666670  0.3333330  0.0000000  )
         3           N   tau(   3) = (  0.0000000  0.0000000  0.5000000  )
         4           B   tau(   4) = (  0.6666670  0.3333330  0.5000000  )

     number of k points=    38  Marzari-Vanderbilt smearing, width (Ry)=  0.0050
                       cart. coord. in units 2pi/alat
        k(    1) = (   0.0000000   0.0000000   0.0000000), wk =   0.0046296
        k(    2) = (   0.0000000   0.0000000   0.1222927), wk =   0.0092593
        k(    3) = (   0.0000000   0.0962250   0.0000000), wk =   0.0277778
        k(    4) = (   0.0000000   0.0962250   0.1222927), wk =   0.0555556
        k(    5) = (   0.0000000   0.1924501   0.0000000), wk =   0.0277778
        k(    6) = (   0.0000000   0.1924501   0.1222927), wk =   0.0555556
        k(    7) = (   0.0000000   0.2886751   0.0000000), wk =   0.0277778
        k(    8) = (   0.0000000   0.2886751   0.1222927), wk =   0.0555556
        k(    9) = (   0.0000000   0.3849002   0.0000000), wk =   0.0277778
        k(   10) = (   0.0000000   0.3849002   0.1222927), wk =   0.0555556
        k(   11) = (   0.0000000   0.4811252   0.0000000), wk =   0.0277778
        k(   12) = (   0.0000000   0.4811252   0.1222927), wk =   0.0555556
        k(   13) = (   0.0000000  -0.5773503   0.0000000), wk =   0.0138889
        k(   14) = (   0.0000000  -0.5773503   0.1222927), wk =   0.0277778
        k(   15) = (   0.0833333   0.1443376   0.0000000), wk =   0.0277778
        k(   16) = (   0.0833333   0.1443376   0.1222927), wk =   0.0555556
        k(   17) = (   0.0833333   0.2405626   0.0000000), wk =   0.0555556
        k(   18) = (   0.0833333   0.2405626   0.1222927), wk =   0.1111111
        k(   19) = (   0.0833333   0.3367877   0.0000000), wk =   0.0555556
        k(   20) = (   0.0833333   0.3367877   0.1222927), wk =   0.1111111
        k(   21) = (   0.0833333   0.4330127   0.0000000), wk =   0.0555556
        k(   22) = (   0.0833333   0.4330127   0.1222927), wk =   0.1111111
        k(   23) = (   0.0833333   0.5292377   0.0000000), wk =   0.0555556
        k(   24) = (   0.0833333   0.5292377   0.1222927), wk =   0.1111111
        k(   25) = (   0.1666667   0.2886751   0.0000000), wk =   0.0277778
        k(   26) = (   0.1666667   0.2886751   0.1222927), wk =   0.0555556
        k(   27) = (   0.1666667   0.3849002   0.0000000), wk =   0.0555556
        k(   28) = (   0.1666667   0.3849002   0.1222927), wk =   0.1111111
        k(   29) = (   0.1666667   0.4811252   0.0000000), wk =   0.0555556
        k(   30) = (   0.1666667   0.4811252   0.1222927), wk =   0.1111111
        k(   31) = (   0.1666667   0.5773503   0.0000000), wk =   0.0277778
        k(   32) = (   0.1666667   0.5773503   0.1222927), wk =   0.0555556
        k(   33) = (   0.2500000   0.4330127   0.0000000), wk =   0.0277778
        k(   34) = (   0.2500000   0.4330127   0.1222927), wk =   0.0555556
        k(   35) = (   0.2500000   0.5292377   0.0000000), wk =   0.0555556
        k(   36) = (   0.2500000   0.5292377   0.1222927), wk =   0.1111111
        k(   37) = (   0.3333333   0.5773503   0.0000000), wk =   0.0092593
        k(   38) = (   0.3333333   0.5773503   0.1222927), wk =   0.0185185

                       cryst. coord.
        k(    1) = (   0.0000000   0.0000000   0.0000000), wk =   0.0046296
        k(    2) = (   0.0000000   0.0000000   0.3333333), wk =   0.0092593
        k(    3) = (   0.0000000   0.0833333   0.0000000), wk =   0.0277778
        k(    4) = (   0.0000000   0.0833333   0.3333333), wk =   0.0555556
        k(    5) = (   0.0000000   0.1666667   0.0000000), wk =   0.0277778
        k(    6) = (   0.0000000   0.1666667   0.3333333), wk =   0.0555556
        k(    7) = (   0.0000000   0.2500000   0.0000000), wk =   0.0277778
        k(    8) = (   0.0000000   0.2500000   0.3333333), wk =   0.0555556
        k(    9) = (   0.0000000   0.3333333   0.0000000), wk =   0.0277778
        k(   10) = (   0.0000000   0.3333333   0.3333333), wk =   0.0555556
        k(   11) = (   0.0000000   0.4166667   0.0000000), wk =   0.0277778
        k(   12) = (   0.0000000   0.4166667   0.3333333), wk =   0.0555556
        k(   13) = (   0.0000000  -0.5000000   0.0000000), wk =   0.0138889
        k(   14) = (   0.0000000  -0.5000000   0.3333333), wk =   0.0277778
        k(   15) = (   0.0833333   0.0833333   0.0000000), wk =   0.0277778
        k(   16) = (   0.0833333   0.0833333   0.3333333), wk =   0.0555556
        k(   17) = (   0.0833333   0.1666667   0.0000000), wk =   0.0555556
        k(   18) = (   0.0833333   0.1666667   0.3333333), wk =   0.1111111
        k(   19) = (   0.0833333   0.2500000   0.0000000), wk =   0.0555556
        k(   20) = (   0.0833333   0.2500000   0.3333333), wk =   0.1111111
        k(   21) = (   0.0833333   0.3333333   0.0000000), wk =   0.0555556
        k(   22) = (   0.0833333   0.3333333   0.3333333), wk =   0.1111111
        k(   23) = (   0.0833333   0.4166667   0.0000000), wk =   0.0555556
        k(   24) = (   0.0833333   0.4166667   0.3333333), wk =   0.1111111
        k(   25) = (   0.1666667   0.1666667   0.0000000), wk =   0.0277778
        k(   26) = (   0.1666667   0.1666667   0.3333333), wk =   0.0555556
        k(   27) = (   0.1666667   0.2500000   0.0000000), wk =   0.0555556
        k(   28) = (   0.1666667   0.2500000   0.3333333), wk =   0.1111111
        k(   29) = (   0.1666667   0.3333333   0.0000000), wk =   0.0555556
        k(   30) = (   0.1666667   0.3333333   0.3333333), wk =   0.1111111
        k(   31) = (   0.1666667   0.4166667   0.0000000), wk =   0.0277778
        k(   32) = (   0.1666667   0.4166667   0.3333333), wk =   0.0555556
        k(   33) = (   0.2500000   0.2500000   0.0000000), wk =   0.0277778
        k(   34) = (   0.2500000   0.2500000   0.3333333), wk =   0.0555556
        k(   35) = (   0.2500000   0.3333333   0.0000000), wk =   0.0555556
        k(   36) = (   0.2500000   0.3333333   0.3333333), wk =   0.1111111
        k(   37) = (   0.3333333   0.3333333   0.0000000), wk =   0.0092593
        k(   38) = (   0.3333333   0.3333333   0.3333333), wk =   0.0185185

     Dense  grid:    56215 G-vectors     FFT dimensions: (  36,  36, 100)

     Dynamical RAM for                 wfc:       0.16 MB

     Dynamical RAM for     wfc (w. buffer):       6.28 MB

     Dynamical RAM for           str. fact:       0.21 MB

     Dynamical RAM for           local pot:       0.00 MB

     Dynamical RAM for          nlocal pot:       0.43 MB

     Dynamical RAM for                qrad:       2.17 MB

     Dynamical RAM for          rho,v,vnew:       0.71 MB

     Dynamical RAM for               rhoin:       0.24 MB

     Dynamical RAM for            rho*nmix:       1.72 MB

     Dynamical RAM for           G-vectors:       0.46 MB

     Dynamical RAM for          h,s,v(r/c):       0.03 MB

     Dynamical RAM for          <psi|beta>:       0.01 MB

     Dynamical RAM for                 psi:       0.32 MB

     Dynamical RAM for                hpsi:       0.32 MB

     Dynamical RAM for      wfcinit/wfcrot:       0.44 MB

     Estimated static dynamical RAM per process >      11.45 MB

     Estimated max dynamical RAM per process >      13.84 MB

     Estimated total dynamical RAM >     110.75 MB

   TS-vdW initialization
   ---------------------

   Determining TS-vdW damping function parameters...
     ddamp = 20.000000
     sR =  0.940000
   Initializing species #   1 with atomic symbol B  
     Equispaced/Uniform radial atomic grid detected...
     Radial grid parameter: NrgpA is  1534.
     Radial grid parameter: gfctrA is  1.000000.
     Radial grid parameter: dxA is  0.010000.
     The number of valence electrons, eref, is         2.999999031570130.
     The reference free atom volume, vref, is        51.344706842680139 bohr^3.
     Determining intial radial grid cutoff...
     An acceptable radial grid cutoff was determined by retaining  945 of 1534 radial grid points.
     The magnitude of the atomic pseudo-density at the radial grid cutoff is  4.191923E-07.
     Using this radial grid cutoff value of         9.440000000000000 au:
     The free atom volume computed with this cutoff is        50.832139101712031 bohr^3 with an error of  0.998%.
     Linear grid spacing was computed as:         0.010440000000000 bohr.
     The free atom static dipole polarizability is     21.000000 bohr^3.
     The free atom homonuclear C6 coefficient is     99.500000 Hartree bohr^6.
     The free atom vdW radius is      3.890000 bohr.
   Initializing species #   2 with atomic symbol N  
     Equispaced/Uniform radial atomic grid detected...
     Radial grid parameter: NrgpA is  1058.
     Radial grid parameter: gfctrA is  1.000000.
     Radial grid parameter: dxA is  0.010000.
     The number of valence electrons, eref, is         4.999996689318865.
     The reference free atom volume, vref, is        30.019815486291613 bohr^3.
     Determining intial radial grid cutoff...
     An acceptable radial grid cutoff was determined by retaining  695 of 1058 radial grid points.
     The magnitude of the atomic pseudo-density at the radial grid cutoff is  1.587073E-06.
     Using this radial grid cutoff value of         6.940000000000000 au:
     The free atom volume computed with this cutoff is        29.725891785098117 bohr^3 with an error of  0.979%.
     Linear grid spacing was computed as:         0.007940000000000 bohr.
     The free atom static dipole polarizability is      7.400000 bohr^3.
     The free atom homonuclear C6 coefficient is     24.200000 Hartree bohr^6.
     The free atom vdW radius is      3.340000 bohr.

     Initial potential from superposition of free atoms

     starting charge      15.9995, renormalised to      16.0000
     Starting wfcs are   16 randomized atomic wfcs

     total cpu time spent up to now is        1.2 secs

     Self-consistent Calculation

     iteration #  1     ecut=   140.00 Ry     beta= 0.70
     Davidson diagonalization with overlap

---- Real-time Memory Report at c_bands before calling an iterative solver
             0 MiB given to the printing process from OS
             0 MiB allocation reported by mallinfo(arena+hblkhd)
             0 MiB available memory on the node where the printing process lives
------------------
     ethr =  1.00E-02,  avg # of iterations =  3.6

     total cpu time spent up to now is        2.5 secs

     total energy              =     -53.41355559 Ry
     estimated scf accuracy    <       0.73343307 Ry

     iteration #  2     ecut=   140.00 Ry     beta= 0.70
     Davidson diagonalization with overlap

---- Real-time Memory Report at c_bands before calling an iterative solver
             0 MiB given to the printing process from OS
             0 MiB allocation reported by mallinfo(arena+hblkhd)
             0 MiB available memory on the node where the printing process lives
------------------
     ethr =  4.58E-03,  avg # of iterations =  2.0

     total cpu time spent up to now is        3.4 secs

     total energy              =     -53.60038563 Ry
     estimated scf accuracy    <       0.29537519 Ry

     iteration #  3     ecut=   140.00 Ry     beta= 0.70
     Davidson diagonalization with overlap

---- Real-time Memory Report at c_bands before calling an iterative solver
             0 MiB given to the printing process from OS
             0 MiB allocation reported by mallinfo(arena+hblkhd)
             0 MiB available memory on the node where the printing process lives
------------------
     ethr =  1.85E-03,  avg # of iterations =  1.5

     total cpu time spent up to now is        4.2 secs

     total energy              =     -53.64842119 Ry
     estimated scf accuracy    <       0.00445464 Ry

     iteration #  4     ecut=   140.00 Ry     beta= 0.70
     Davidson diagonalization with overlap

---- Real-time Memory Report at c_bands before calling an iterative solver
             0 MiB given to the printing process from OS
             0 MiB allocation reported by mallinfo(arena+hblkhd)
             0 MiB available memory on the node where the printing process lives
------------------
     c_bands:  1 eigenvalues not converged
     ethr =  2.78E-05,  avg # of iterations =  8.5

     total cpu time spent up to now is        6.0 secs

     total energy              =     -53.65170795 Ry
     estimated scf accuracy    <       0.00343813 Ry

     iteration #  5     ecut=   140.00 Ry     beta= 0.70
     Davidson diagonalization with overlap

---- Real-time Memory Report at c_bands before calling an iterative solver
             0 MiB given to the printing process from OS
             0 MiB allocation reported by mallinfo(arena+hblkhd)
             0 MiB available memory on the node where the printing process lives
------------------
     ethr =  2.15E-05,  avg # of iterations =  2.3

     total cpu time spent up to now is        6.9 secs

     total energy              =     -53.65229054 Ry
     estimated scf accuracy    <       0.00002961 Ry

     iteration #  6     ecut=   140.00 Ry     beta= 0.70
     Davidson diagonalization with overlap

---- Real-time Memory Report at c_bands before calling an iterative solver
             0 MiB given to the printing process from OS
             0 MiB allocation reported by mallinfo(arena+hblkhd)
             0 MiB available memory on the node where the printing process lives
------------------
     c_bands:  1 eigenvalues not converged
     c_bands:  1 eigenvalues not converged
     ethr =  1.85E-07,  avg # of iterations =  7.6

     total cpu time spent up to now is        8.5 secs

     total energy              =     -53.65232673 Ry
     estimated scf accuracy    <       0.00006536 Ry

     iteration #  7     ecut=   140.00 Ry     beta= 0.70
     Davidson diagonalization with overlap

---- Real-time Memory Report at c_bands before calling an iterative solver
             0 MiB given to the printing process from OS
             0 MiB allocation reported by mallinfo(arena+hblkhd)
             0 MiB available memory on the node where the printing process lives
------------------
     c_bands:  2 eigenvalues not converged
     ethr =  1.85E-07,  avg # of iterations =  2.8

     total cpu time spent up to now is        9.5 secs

     End of self-consistent calculation

          k = 0.0000 0.0000 0.0000 (  7003 PWs)   bands (ev):

   -13.3593 -13.1222  -1.7131   0.1411   3.0198   3.0199   3.0475   3.0476
     9.4217  14.2637  15.9785  15.9792

     occupation numbers 
     1.0000   1.0000   1.0000   1.0000   1.0000   1.0000   1.0000   1.0000
     0.0000   0.0000   0.0000   0.0000

          k = 0.0000 0.0000 0.1223 (  7020 PWs)   bands (ev):

   -13.3023 -13.1839  -1.3174  -0.4069   3.0268   3.0268   3.0406   3.0406
    10.5145  12.8152  16.0037  16.0250

     occupation numbers 
     1.0000   1.0000   1.0000   1.0000   1.0000   1.0000   1.0000   1.0000
     0.0000   0.0000   0.0000   0.0000

          k = 0.0000 0.0962 0.0000 (  6985 PWs)   bands (ev):

   -13.2242 -12.9909  -1.5272   0.3096   2.4651   2.4874   2.7606   2.7916
     9.6682  14.2051  15.7872  15.9819

     occupation numbers 
     1.0000   1.0000   1.0000   1.0000   1.0000   1.0000   1.0000   1.0000
     0.0000   0.0000   0.0000   0.0000

          k = 0.0000 0.0962 0.1223 (  7009 PWs)   bands (ev):

   -13.1681 -13.0516  -1.1354  -0.2336   2.4728   2.4851   2.7683   2.7838
    10.7336  12.9345  15.8750  15.9593

     occupation numbers 
     1.0000   1.0000   1.0000   1.0000   1.0000   1.0000   1.0000   1.0000
     0.0000   0.0000   0.0000   0.0000

          k = 0.0000 0.1925 0.0000 (  7023 PWs)   bands (ev):

   -12.8262 -12.6045  -0.9767   0.8051   1.0572   1.0841   2.1295   2.1669
    10.3201  13.9008  15.3818  15.4660

     occupation numbers 
     1.0000   1.0000   1.0000   1.0000   1.0000   1.0000   1.0000   1.0000
     0.0000   0.0000   0.0000   0.0000

          k = 0.0000 0.1925 0.1223 (  7013 PWs)   bands (ev):

   -12.7728 -12.6620  -0.5992   0.2677   1.0724   1.0954   2.1388   2.1575
    11.2874  13.0976  15.4640  15.5345

     occupation numbers 
     1.0000   1.0000   1.0000   1.0000   1.0000   1.0000   1.0000   1.0000
     0.0000   0.0000   0.0000   0.0000

          k = 0.0000 0.2887 0.0000 (  7047 PWs)   bands (ev):

   -12.1919 -11.9905  -0.7319  -0.6879  -0.0872   1.3982   1.4412   1.5906
    11.2683  13.0196  13.6452  14.9732

     occupation numbers 
     1.0000   1.0000   1.0000   1.0000   1.0000   1.0000   1.0000   1.0000
     0.0000   0.0000   0.0000   0.0000

          k = 0.0000 0.2887 0.1223 (  7005 PWs)   bands (ev):

   -12.1432 -12.0426  -0.7336  -0.7071   0.2929   1.1161   1.4089   1.4304
    11.9053  12.7553  14.0845  14.8908

     occupation numbers 
     1.0000   1.0000   1.0000   1.0000   1.0000   1.0000   1.0000   1.0000
     0.0000   0.0000   0.0000   0.0000

          k = 0.0000 0.3849 0.0000 (  7024 PWs)   bands (ev):

   -11.3880 -11.2193  -2.5144  -2.4531   0.7700   0.8168   1.0755   2.5720
    11.2783  11.9667  12.4142  14.6444

     occupation numbers 
     1.0000   1.0000   1.0000   1.0000   1.0000   1.0000   1.0000   1.0000
     0.0000   0.0000   0.0000   0.0000

          k = 0.0000 0.3849 0.1223 (  7034 PWs)   bands (ev):

   -11.3469 -11.2626  -2.5027  -2.4717   0.7817   0.8051   1.4136   2.1552
    11.2484  11.5876  13.5731  14.5468

     occupation numbers 
     1.0000   1.0000   1.0000   1.0000   1.0000   1.0000   1.0000   1.0000
     0.0000   0.0000   0.0000   0.0000

          k = 0.0000 0.4811 0.0000 (  7010 PWs)   bands (ev):

   -10.5865 -10.4721  -3.9358  -3.8717   0.3580   0.4069   2.3213   3.4995
     9.4882  10.5559  13.4690  14.4368

     occupation numbers 
     1.0000   1.0000   1.0000   1.0000   1.0000   1.0000   1.0000   1.0000
     0.0000   0.0000   0.0000   0.0000

          k = 0.0000 0.4811 0.1223 (  7032 PWs)   bands (ev):

   -10.5583 -10.5011  -3.9227  -3.8906   0.3701   0.3946   2.6017   3.1907
     9.6336  10.1618  13.9910  14.3982

     occupation numbers 
     1.0000   1.0000   1.0000   1.0000   1.0000   1.0000   1.0000   1.0000
     0.0000   0.0000   0.0000   0.0000

          k = 0.0000-0.5774 0.0000 (  7032 PWs)   bands (ev):

   -10.1926 -10.1364  -4.5178  -4.4657   0.2154   0.2651   3.0102   3.8748
     8.6917   9.9019  13.8823  14.3663

     occupation numbers 
     1.0000   1.0000   1.0000   1.0000   1.0000   1.0000   1.0000   1.0000
     0.0000   0.0000   0.0000   0.0000

          k = 0.0000-0.5774 0.1223 (  7032 PWs)   bands (ev):

   -10.1784 -10.1503  -4.5080  -4.4819   0.2278   0.2526   3.2331   3.6700
     8.8614   9.4616  14.1381  14.3509

     occupation numbers 
     1.0000   1.0000   1.0000   1.0000   1.0000   1.0000   1.0000   1.0000
     0.0000   0.0000   0.0000   0.0000

          k = 0.0833 0.1443 0.0000 (  6991 PWs)   bands (ev):

   -12.9575 -12.7319  -1.1590   0.6418   1.5561   1.5679   2.2500   2.2820
    10.1204  14.0269  15.8959  15.9838

     occupation numbers 
     1.0000   1.0000   1.0000   1.0000   1.0000   1.0000   1.0000   1.0000
     0.0000   0.0000   0.0000   0.0000

          k = 0.0833 0.1443 0.1223 (  7009 PWs)   bands (ev):

   -12.9032 -12.7905  -0.7757   0.1060   1.5645   1.5749   2.2582   2.2740
    11.1259  13.0871  15.9207  15.9725

     occupation numbers 
     1.0000   1.0000   1.0000   1.0000   1.0000   1.0000   1.0000   1.0000
     0.0000   0.0000   0.0000   0.0000

          k = 0.0833 0.2406 0.0000 (  7016 PWs)   bands (ev):

   -12.4401 -12.2303  -0.4377   0.0670   0.0919   1.2841   1.4564   1.4960
    10.9392  13.4605  14.3461  15.6992

     occupation numbers 
     1.0000   1.0000   1.0000   1.0000   1.0000   1.0000   1.0000   1.0000
     0.0000   0.0000   0.0000   0.0000

          k = 0.0833 0.2406 0.1223 (  7005 PWs)   bands (ev):

   -12.3894 -12.2846  -0.1287   0.0635   0.1405   0.8052   1.4678   1.4871
    11.7577  13.0249  14.7142  15.5889

     occupation numbers 
     1.0000   1.0000   1.0000   1.0000   1.0000   1.0000   1.0000   1.0000
     0.0000   0.0000   0.0000   0.0000

          k = 0.0833 0.3368 0.0000 (  7022 PWs)   bands (ev):

   -11.7149 -11.5310  -1.6571  -1.6094   0.5950   0.7059   0.7525   2.1768
    12.0393  12.1877  12.6029  15.3677

     occupation numbers 
     1.0000   1.0000   1.0000   1.0000   1.0000   1.0000   1.0000   1.0000
     0.0000   0.0000   0.0000   0.0000

          k = 0.0833 0.3368 0.1223 (  7021 PWs)   bands (ev):

   -11.6702 -11.5784  -1.6501  -1.6256   0.7127   0.7376   0.9564   1.7336
    11.8847  12.1761  13.6969  15.1861

     occupation numbers 
     1.0000   1.0000   1.0000   1.0000   1.0000   1.0000   1.0000   1.0000
     0.0000   0.0000   0.0000   0.0000

          k = 0.0833 0.4330 0.0000 (  7037 PWs)   bands (ev):

   -10.8891 -10.7471  -3.2500  -3.1873   0.1520   0.2029   1.8298   3.1665
    10.3303  11.1370  13.2870  15.1036

     occupation numbers 
     1.0000   1.0000   1.0000   1.0000   1.0000   1.0000   1.0000   1.0000
     0.0000   0.0000   0.0000   0.0000

          k = 0.0833 0.4330 0.1223 (  7033 PWs)   bands (ev):

   -10.8543 -10.7833  -3.2372  -3.2057   0.1639   0.1894   2.1397   2.8048
    10.4056  10.8090  14.1737  15.0139

     occupation numbers 
     1.0000   1.0000   1.0000   1.0000   1.0000   1.0000   1.0000   1.0000
     0.0000   0.0000   0.0000   0.0000

          k = 0.0833 0.5292 0.0000 (  7048 PWs)   bands (ev):

   -10.2341 -10.1579  -4.2899  -4.2316  -0.1382  -0.0853   2.9212   3.8645
     8.9616  10.0416  14.2424  14.9621

     occupation numbers 
     1.0000   1.0000   1.0000   1.0000   1.0000   1.0000   1.0000   1.0000
     0.0000   0.0000   0.0000   0.0000

          k = 0.0833 0.5292 0.1223 (  7029 PWs)   bands (ev):

   -10.2151 -10.1770  -4.2783  -4.2491  -0.1256  -0.0991   3.1594   3.6346
     9.1089   9.6465  14.6242  14.9348

     occupation numbers 
     1.0000   1.0000   1.0000   1.0000   1.0000   1.0000   1.0000   1.0000
     0.0000   0.0000   0.0000   0.0000

          k = 0.1667 0.2887 0.0000 (  7027 PWs)   bands (ev):

   -11.8278 -11.6391  -1.1334  -1.1277   0.4307   0.4381   0.4809   2.0394
    11.9421  12.6194  12.8236  16.6435

     occupation numbers 
     1.0000   1.0000   1.0000   1.0000   1.0000   1.0000   1.0000   1.0000
     0.0000   0.0000   0.0000   0.0000

          k = 0.1667 0.2887 0.1223 (  7016 PWs)   bands (ev):

   -11.7821 -11.6877  -1.1383  -1.1339   0.4457   0.4618   0.8007   1.5894
    12.0774  12.4265  13.8803  16.1114

     occupation numbers 
     1.0000   1.0000   1.0000   1.0000   1.0000   1.0000   1.0000   1.0000
     0.0000   0.0000   0.0000   0.0000

          k = 0.1667 0.3849 0.0000 (  7040 PWs)   bands (ev):

   -11.0597 -10.9041  -2.4995  -2.4633  -0.4311  -0.3818   1.5603   2.9727
    11.1073  11.4788  13.2368  16.6661

     occupation numbers 
     1.0000   1.0000   1.0000   1.0000   1.0000   1.0000   1.0000   1.0000
     0.0000   0.0000   0.0000   0.0000

          k = 0.1667 0.3849 0.1223 (  7044 PWs)   bands (ev):

   -11.0217 -10.9440  -2.4931  -2.4749  -0.4207  -0.3961   1.8852   2.5865
    11.0487  11.2689  14.4051  16.2702

     occupation numbers 
     1.0000   1.0000   1.0000   1.0000   1.0000   1.0000   1.0000   1.0000
     0.0000   0.0000   0.0000   0.0000

          k = 0.1667 0.4811 0.0000 (  7040 PWs)   bands (ev):

   -10.3077 -10.2051  -3.6985  -3.6392  -0.9553  -0.8992   2.7645   3.8318
     9.5833  10.3075  14.6666  16.4672

     occupation numbers 
     1.0000   1.0000   1.0000   1.0000   1.0000   1.0000   1.0000   1.0000
     0.0000   0.0000   0.0000   0.0000

          k = 0.1667 0.4811 0.1223 (  7046 PWs)   bands (ev):

   -10.2823 -10.2310  -3.6860  -3.6564  -0.9428  -0.9147   3.0263   3.5615
     9.6578  10.0259  15.4290  16.3320

     occupation numbers 
     1.0000   1.0000   1.0000   1.0000   1.0000   1.0000   1.0000   1.0000
     0.0000   0.0000   0.0000   0.0000

          k = 0.1667 0.5774 0.0000 (  7063 PWs)   bands (ev):

    -9.9462  -9.8977  -4.2062  -4.1433  -1.1280  -1.0694   3.4366   4.1531
     8.9104   9.7437  15.5469  16.3893

     occupation numbers 
     1.0000   1.0000   1.0000   1.0000   1.0000   1.0000   1.0000   1.0000
     0.0000   0.0000   0.0000   0.0000

          k = 0.1667 0.5774 0.1223 (  7048 PWs)   bands (ev):

    -9.9340  -9.9097  -4.1930  -4.1615  -1.1147  -1.0854   3.6328   3.9962
     8.9991   9.4187  15.9821  16.3536

     occupation numbers 
     1.0000   1.0000   1.0000   1.0000   1.0000   1.0000   1.0000   1.0000
     0.0000   0.0000   0.0000   0.0000

          k = 0.2500 0.4330 0.0000 (  7043 PWs)   bands (ev):

   -10.3416 -10.2292  -3.2247  -3.1945  -1.5110  -1.4699   2.6941   3.8118
     9.9794  10.4041  14.7209  16.6723

     occupation numbers 
     1.0000   1.0000   1.0000   1.0000   1.0000   1.0000   1.0000   1.0000
     0.0000   0.0000   0.0000   0.0000

          k = 0.2500 0.4330 0.1223 (  7057 PWs)   bands (ev):

   -10.3139 -10.2577  -3.2187  -3.2037  -1.5031  -1.4826   2.9652   3.5248
     9.9809  10.2114  15.5824  16.6295

     occupation numbers 
     1.0000   1.0000   1.0000   1.0000   1.0000   1.0000   1.0000   1.0000
     0.0000   0.0000   0.0000   0.0000

          k = 0.2500 0.5292 0.0000 (  7061 PWs)   bands (ev):

    -9.8046  -9.7521  -3.7631  -3.6881  -2.1211  -2.0748   3.6933   4.3214
     9.1722   9.6110  15.8305  16.2626

     occupation numbers 
     1.0000   1.0000   1.0000   1.0000   1.0000   1.0000   1.0000   1.0000
     0.0000   0.0000   0.0000   0.0000

          k = 0.2500 0.5292 0.1223 (  7059 PWs)   bands (ev):

    -9.7914  -9.7652  -3.7458  -3.7083  -2.1121  -2.0888   3.8727   4.1916
     9.1670   9.3943  16.2199  16.7410

     occupation numbers 
     1.0000   1.0000   1.0000   1.0000   1.0000   1.0000   1.0000   1.0000
     0.0000   0.0000   0.0000   0.0000

          k = 0.3333 0.5774 0.0000 (  7071 PWs)   bands (ev):

    -9.5850  -9.5850  -3.5778  -3.4494  -2.7770  -2.7770   4.3054   4.3055
     9.1870   9.1871  15.2278  17.5060

     occupation numbers 
     1.0000   1.0000   1.0000   1.0000   1.0000   1.0000   1.0000   1.0000
     0.0000   0.0000   0.0000   0.0000

          k = 0.3333 0.5774 0.1223 (  7062 PWs)   bands (ev):

    -9.5848  -9.5848  -3.5462  -3.4820  -2.7804  -2.7804   4.3480   4.3481
     9.0637   9.0638  15.7522  17.1517

     occupation numbers 
     1.0000   1.0000   1.0000   1.0000   1.0000   1.0000   1.0000   1.0000
     0.0000   0.0000   0.0000   0.0000

     the Fermi energy is     6.1016 ev

!    total energy              =     -53.65233944 Ry
     estimated scf accuracy    <       0.00000008 Ry
     smearing contrib. (-TS)   =       0.00000000 Ry
     internal energy E=F+TS    =     -53.65233944 Ry

     The total energy is F=E-TS. E is the sum of the following terms:
     one-electron contribution =     -18.09441588 Ry
     hartree contribution      =      17.25089233 Ry
     xc contribution           =     -17.32583453 Ry
     ewald contribution        =     -35.46233395 Ry
     Dispersion Correction     =      -0.02064741 Ry

     convergence has been achieved in   7 iterations

     Forces acting on atoms (cartesian axes, Ry/au):

     atom    1 type  1   force =    -0.00000000   -0.00000000    0.00000000
     atom    2 type  2   force =     0.00000000    0.00000000    0.00000000
     atom    3 type  2   force =     0.00000000    0.00000000    0.00000000
     atom    4 type  1   force =     0.00000000    0.00000000    0.00000000
     The non-local contrib.  to forces
     atom    1 type  1   force =     0.00000000    0.00000000    0.00000000
     atom    2 type  2   force =    -0.00000000   -0.00000000    0.00000000
     atom    3 type  2   force =    -0.00000000   -0.00000000    0.00000000
     atom    4 type  1   force =     0.00000000   -0.00000000    0.00000000
     The ionic contribution  to forces
     atom    1 type  1   force =     0.00000773   -0.00000446   -0.00000000
     atom    2 type  2   force =    -0.00000774    0.00000447   -0.00000000
     atom    3 type  2   force =     0.00000774   -0.00000447    0.00000000
     atom    4 type  1   force =    -0.00000773    0.00000446    0.00000000
     The local contribution  to forces
     atom    1 type  1   force =    -0.00000000   -0.00000000    0.00000000
     atom    2 type  2   force =    -0.00003342    0.00001930    0.00000000
     atom    3 type  2   force =     0.00000000    0.00000000    0.00000000
     atom    4 type  1   force =     0.00000418   -0.00000241    0.00000000
     The core correction contribution to forces
     atom    1 type  1   force =    -0.00000000   -0.00000001    0.00000000
     atom    2 type  2   force =     0.00000141   -0.00000084   -0.00000000
     atom    3 type  2   force =    -0.00000001   -0.00000002   -0.00000000
     atom    4 type  1   force =     0.00000021   -0.00000013    0.00000000
     The Hubbard contrib.    to forces
     atom    1 type  1   force =     0.00000000    0.00000000    0.00000000
     atom    2 type  2   force =     0.00000000    0.00000000    0.00000000
     atom    3 type  2   force =     0.00000000    0.00000000    0.00000000
     atom    4 type  1   force =     0.00000000    0.00000000    0.00000000
     The SCF correction term to forces
     atom    1 type  1   force =    -0.00000000    0.00000000   -0.00000000
     atom    2 type  2   force =     0.00000000   -0.00000000   -0.00000000
     atom    3 type  2   force =    -0.00000001    0.00000001   -0.00000000
     atom    4 type  1   force =     0.00000000   -0.00000000   -0.00000000

     TS-VDW contribution to forces
     atom    1 type  1   force =    -0.00046519    0.00038383   -0.00000669
     atom    2 type  2   force =     0.00045265   -0.00027196   -0.00000125
     atom    3 type  2   force =    -0.00035138    0.00027571    0.00000126
     atom    4 type  1   force =     0.00053777   -0.00030387    0.00000671

     Total force =     0.000000     Total SCF correction =     0.000000


     Computing stress (Cartesian axis) and pressure

          total   stress  (Ry/bohr**3)                   (kbar)     P=        6.44
   0.00008300   0.00000000   0.00000000           12.21        0.00        0.00
   0.00000000   0.00008300   0.00000000            0.00       12.21        0.00
   0.00000000   0.00000000  -0.00003466            0.00        0.00       -5.10

     kinetic stress (kbar)  14150.04     -0.00      0.00
                               -0.00  14150.04      0.00
                                0.00      0.00  15454.54

     local   stress (kbar) -19109.45      0.01     -0.00
                                0.01 -19109.44      0.00
                               -0.00      0.00  21101.44

     nonloc. stress (kbar)  -2327.47     -0.00      0.00
                               -0.00  -2327.47      0.00
                               -0.00      0.00  -2261.38

     hartree stress (kbar)   7652.00     -0.00     -0.00
                               -0.00   7652.00     -0.00
                               -0.00     -0.00  -5209.24

     exc-cor stress (kbar)  -1410.22     -0.00      0.00
                               -0.00  -1410.22      0.00
                                0.00      0.00  -1508.31

     corecor stress (kbar)  -1578.80      0.00     -0.00
                                0.00  -1578.80     -0.00
                               -0.00     -0.00  -1549.86

     ewald   stress (kbar)   2635.13     -0.02     -0.00
                               -0.02   2635.11     -0.00
                               -0.00     -0.00 -26021.82

     hubbard stress (kbar)      0.00      0.00      0.00
                                0.00      0.00      0.00
                                0.00      0.00      0.00

     DFT-D   stress (kbar)      0.00      0.00      0.00
                                0.00      0.00      0.00
                                0.00      0.00      0.00

     XDM     stress (kbar)      0.00      0.00      0.00
                                0.00      0.00      0.00
                                0.00      0.00      0.00

     dft-nl  stress (kbar)      0.00      0.00      0.00
                                0.00      0.00      0.00
                                0.00      0.00      0.00

     TS-vdW  stress (kbar)      1.41     -0.43     -0.00
                               -0.43      0.56     -0.00
                               -0.00     -0.00    -10.47

     MDB     stress (kbar)      0.00      0.00      0.00
                                0.00      0.00      0.00
                                0.00      0.00      0.00

     3D-RISM stress (kbar)      0.00      0.00      0.00
                                0.00      0.00      0.00
                                0.00      0.00      0.00


     BFGS Geometry Optimization
     Energy error            =      0.0E+00 Ry
     Gradient error          =      1.8E-20 Ry/Bohr
     Cell gradient error     =      1.2E+01 kbar

     number of scf cycles    =   1
     number of bfgs steps    =   0

     enthalpy           new  =     -53.6523394420 Ry

     new trust radius        =       0.0065796498 bohr
     new conv_thr            =       0.0000010000 Ry

     new unit-cell volume =    252.21306 a.u.^3 (    37.37412 Ang^3 )
     density =      2.13265 g/cm^3

CELL_PARAMETERS (alat=  4.74000000)
   1.002074918   0.000000000   0.000000000
  -0.501037459   0.867822335   0.000000000
   0.000000000   0.000000000   2.723337887

ATOMIC_POSITIONS (crystal)
B             0.0000000000        0.0000000000        0.0000000000    0   0   0
N             0.6666670000        0.3333330000        0.0000000000    0   0   0
N             0.0000000000        0.0000000000        0.5000000000
B             0.6666670000        0.3333330000        0.5000000000



     Writing config-only to output data dir ./tmp/BNBULK_AA1_PBE_vdW_ts.save/
     NEW-OLD atomic charge density approx. for the potential
     extrapolated charge   16.05237, renormalised to   16.00000

     total cpu time spent up to now is       11.8 secs

     Self-consistent Calculation

     iteration #  1     ecut=   140.00 Ry     beta= 0.70
     Davidson diagonalization with overlap

---- Real-time Memory Report at c_bands before calling an iterative solver
             0 MiB given to the printing process from OS
             0 MiB allocation reported by mallinfo(arena+hblkhd)
             0 MiB available memory on the node where the printing process lives
------------------
     ethr =  1.00E-06,  avg # of iterations =  3.0

     total cpu time spent up to now is       12.9 secs

     total energy              =     -53.65190209 Ry
     estimated scf accuracy    <       0.00031734 Ry

     iteration #  2     ecut=   140.00 Ry     beta= 0.70
     Davidson diagonalization with overlap

---- Real-time Memory Report at c_bands before calling an iterative solver
             0 MiB given to the printing process from OS
             0 MiB allocation reported by mallinfo(arena+hblkhd)
             0 MiB available memory on the node where the printing process lives
------------------
     ethr =  1.98E-06,  avg # of iterations =  3.1

     total cpu time spent up to now is       14.2 secs

     total energy              =     -53.65229372 Ry
     estimated scf accuracy    <       0.00084773 Ry

     iteration #  3     ecut=   140.00 Ry     beta= 0.70
     Davidson diagonalization with overlap

---- Real-time Memory Report at c_bands before calling an iterative solver
             0 MiB given to the printing process from OS
             0 MiB allocation reported by mallinfo(arena+hblkhd)
             0 MiB available memory on the node where the printing process lives
------------------
     ethr =  1.98E-06,  avg # of iterations =  1.7

     total cpu time spent up to now is       15.1 secs

     total energy              =     -53.65227558 Ry
     estimated scf accuracy    <       0.00015687 Ry

     iteration #  4     ecut=   140.00 Ry     beta= 0.70
     Davidson diagonalization with overlap

---- Real-time Memory Report at c_bands before calling an iterative solver
             0 MiB given to the printing process from OS
             0 MiB allocation reported by mallinfo(arena+hblkhd)
             0 MiB available memory on the node where the printing process lives
------------------
     ethr =  9.80E-07,  avg # of iterations =  2.0

     total cpu time spent up to now is       16.1 secs

     total energy              =     -53.65231175 Ry
     estimated scf accuracy    <       0.00000197 Ry

     iteration #  5     ecut=   140.00 Ry     beta= 0.70
     Davidson diagonalization with overlap

---- Real-time Memory Report at c_bands before calling an iterative solver
             0 MiB given to the printing process from OS
             0 MiB allocation reported by mallinfo(arena+hblkhd)
             0 MiB available memory on the node where the printing process lives
------------------
     ethr =  1.23E-08,  avg # of iterations =  4.0

     total cpu time spent up to now is       17.3 secs

     total energy              =     -53.65231329 Ry
     estimated scf accuracy    <       0.00000256 Ry

     iteration #  6     ecut=   140.00 Ry     beta= 0.70
     Davidson diagonalization with overlap

---- Real-time Memory Report at c_bands before calling an iterative solver
             0 MiB given to the printing process from OS
             0 MiB allocation reported by mallinfo(arena+hblkhd)
             0 MiB available memory on the node where the printing process lives
------------------
     ethr =  1.23E-08,  avg # of iterations =  2.0

     total cpu time spent up to now is       18.2 secs

     total energy              =     -53.65231177 Ry
     estimated scf accuracy    <       0.00000528 Ry

     iteration #  7     ecut=   140.00 Ry     beta= 0.70
     Davidson diagonalization with overlap

---- Real-time Memory Report at c_bands before calling an iterative solver
             0 MiB given to the printing process from OS
             0 MiB allocation reported by mallinfo(arena+hblkhd)
             0 MiB available memory on the node where the printing process lives
------------------
     ethr =  1.23E-08,  avg # of iterations =  2.0

     total cpu time spent up to now is       19.2 secs

     End of self-consistent calculation

          k = 0.0000 0.0000 0.0000 (  7003 PWs)   bands (ev):

   -13.3500 -13.1108  -1.7124   0.1537   2.9863   2.9863   3.0146   3.0146
     9.4008  14.2304  15.8977  15.8985

     occupation numbers 
     1.0000   1.0000   1.0000   1.0000   1.0000   1.0000   1.0000   1.0000
     0.0000   0.0000   0.0000   0.0000

          k = 0.0000 0.0000 0.1224 (  7020 PWs)   bands (ev):

   -13.2925 -13.1730  -1.3145  -0.3983   2.9933   2.9934   3.0075   3.0075
    10.4940  12.7879  15.9239  15.9446

     occupation numbers 
     1.0000   1.0000   1.0000   1.0000   1.0000   1.0000   1.0000   1.0000
     0.0000   0.0000   0.0000   0.0000

          k =-0.0000 0.0960 0.0000 (  6985 PWs)   bands (ev):

   -13.2155 -12.9801  -1.5275   0.3212   2.4330   2.4558   2.7287   2.7603
     9.6474  14.1676  15.7014  15.9012

     occupation numbers 
     1.0000   1.0000   1.0000   1.0000   1.0000   1.0000   1.0000   1.0000
     0.0000   0.0000   0.0000   0.0000

          k =-0.0000 0.0960 0.1224 (  7009 PWs)   bands (ev):

   -13.1589 -13.0413  -1.1334  -0.2261   2.4408   2.4534   2.7365   2.7523
    10.7129  12.9060  15.7927  15.8790

     occupation numbers 
     1.0000   1.0000   1.0000   1.0000   1.0000   1.0000   1.0000   1.0000
     0.0000   0.0000   0.0000   0.0000

          k =-0.0000 0.1921 0.0000 (  7023 PWs)   bands (ev):

   -12.8193 -12.5956  -0.9797   0.8136   1.0293   1.0569   2.1015   2.1396
    10.2979  13.8531  15.2933  15.3811

     occupation numbers 
     1.0000   1.0000   1.0000   1.0000   1.0000   1.0000   1.0000   1.0000
     0.0000   0.0000   0.0000   0.0000

          k =-0.0000 0.1921 0.1224 (  7013 PWs)   bands (ev):

   -12.7654 -12.6536  -0.6001   0.2714   1.0450   1.0690   2.1110   2.1300
    11.2638  13.0610  15.3766  15.4482

     occupation numbers 
     1.0000   1.0000   1.0000   1.0000   1.0000   1.0000   1.0000   1.0000
     0.0000   0.0000   0.0000   0.0000

          k =-0.0000 0.2881 0.0000 (  7047 PWs)   bands (ev):

   -12.1881 -11.9849  -0.7532  -0.7083  -0.0946   1.3745   1.4182   1.5939
    11.2403  12.9637  13.5739  14.8823

     occupation numbers 
     1.0000   1.0000   1.0000   1.0000   1.0000   1.0000   1.0000   1.0000
     0.0000   0.0000   0.0000   0.0000

          k =-0.0000 0.2881 0.1224 (  7005 PWs)   bands (ev):

   -12.1389 -12.0374  -0.7547  -0.7279   0.2877   1.1161   1.3853   1.4072
    11.8694  12.7045  14.0149  14.8043

     occupation numbers 
     1.0000   1.0000   1.0000   1.0000   1.0000   1.0000   1.0000   1.0000
     0.0000   0.0000   0.0000   0.0000

          k =-0.0000 0.3841 0.0000 (  7024 PWs)   bands (ev):

   -11.3886 -11.2184  -2.5280  -2.4657   0.7498   0.7975   1.0621   2.5680
    11.2230  11.9133  12.3732  14.5518

     occupation numbers 
     1.0000   1.0000   1.0000   1.0000   1.0000   1.0000   1.0000   1.0000
     0.0000   0.0000   0.0000   0.0000

          k =-0.0000 0.3841 0.1224 (  7034 PWs)   bands (ev):

   -11.3471 -11.2621  -2.5161  -2.4846   0.7617   0.7855   1.4023   2.1485
    11.1943  11.5359  13.5167  14.4591

     occupation numbers 
     1.0000   1.0000   1.0000   1.0000   1.0000   1.0000   1.0000   1.0000
     0.0000   0.0000   0.0000   0.0000

          k =-0.0000 0.4801 0.0000 (  7010 PWs)   bands (ev):

   -10.5923 -10.4767  -3.9417  -3.8765   0.3400   0.3899   2.3011   3.4868
     9.4438  10.5142  13.4031  14.3427

     occupation numbers 
     1.0000   1.0000   1.0000   1.0000   1.0000   1.0000   1.0000   1.0000
     0.0000   0.0000   0.0000   0.0000

          k =-0.0000 0.4801 0.1224 (  7032 PWs)   bands (ev):

   -10.5638 -10.5060  -3.9284  -3.8958   0.3524   0.3773   2.5834   3.1762
     9.5888  10.1187  13.9135  14.3068

     occupation numbers 
     1.0000   1.0000   1.0000   1.0000   1.0000   1.0000   1.0000   1.0000
     0.0000   0.0000   0.0000   0.0000

          k = 0.0000-0.5762 0.0000 (  7032 PWs)   bands (ev):

   -10.2014 -10.1442  -4.5199  -4.4665   0.1982   0.2488   2.9861   3.8570
     8.6537   9.8659  13.8002  14.2716

     occupation numbers 
     1.0000   1.0000   1.0000   1.0000   1.0000   1.0000   1.0000   1.0000
     0.0000   0.0000   0.0000   0.0000

          k = 0.0000-0.5762 0.1224 (  7032 PWs)   bands (ev):

   -10.1870 -10.1584  -4.5098  -4.4831   0.2108   0.2361   3.2108   3.6510
     8.8225   9.4240  14.0518  14.2582

     occupation numbers 
     1.0000   1.0000   1.0000   1.0000   1.0000   1.0000   1.0000   1.0000
     0.0000   0.0000   0.0000   0.0000

          k = 0.0832 0.1440 0.0000 (  6991 PWs)   bands (ev):

   -12.9500 -12.7224  -1.1610   0.6513   1.5265   1.5388   2.2212   2.2539
    10.0990  13.9822  15.8082  15.8972

     occupation numbers 
     1.0000   1.0000   1.0000   1.0000   1.0000   1.0000   1.0000   1.0000
     0.0000   0.0000   0.0000   0.0000

          k = 0.0832 0.1440 0.1224 (  7009 PWs)   bands (ev):

   -12.8952 -12.7815  -0.7757   0.1114   1.5352   1.5461   2.2296   2.2457
    11.1039  13.0541  15.8359  15.8868

     occupation numbers 
     1.0000   1.0000   1.0000   1.0000   1.0000   1.0000   1.0000   1.0000
     0.0000   0.0000   0.0000   0.0000

          k = 0.0832 0.2401 0.0000 (  7016 PWs)   bands (ev):

   -12.4351 -12.2234  -0.4433   0.0425   0.0680   1.2895   1.4319   1.4723
    10.9148  13.4070  14.2683  15.6100

     occupation numbers 
     1.0000   1.0000   1.0000   1.0000   1.0000   1.0000   1.0000   1.0000
     0.0000   0.0000   0.0000   0.0000

          k = 0.0832 0.2401 0.1224 (  7005 PWs)   bands (ev):

   -12.3839 -12.2782  -0.1385   0.0398   0.1226   0.8066   1.4435   1.4633
    11.7291  12.9791  14.6390  15.5029

     occupation numbers 
     1.0000   1.0000   1.0000   1.0000   1.0000   1.0000   1.0000   1.0000
     0.0000   0.0000   0.0000   0.0000

          k = 0.0832 0.3361 0.0000 (  7022 PWs)   bands (ev):

   -11.7136 -11.5280  -1.6744  -1.6259   0.5841   0.6852   0.7327   2.1759
    12.0072  12.1294  12.5420  15.2749

     occupation numbers 
     1.0000   1.0000   1.0000   1.0000   1.0000   1.0000   1.0000   1.0000
     0.0000   0.0000   0.0000   0.0000

          k = 0.0832 0.3361 0.1224 (  7021 PWs)   bands (ev):

   -11.6685 -11.5758  -1.6673  -1.6424   0.6925   0.7177   0.9474   1.7297
    11.8325  12.1228  13.6462  15.1019

     occupation numbers 
     1.0000   1.0000   1.0000   1.0000   1.0000   1.0000   1.0000   1.0000
     0.0000   0.0000   0.0000   0.0000

          k = 0.0832 0.4321 0.0000 (  7037 PWs)   bands (ev):

   -10.8927 -10.7494  -3.2594  -3.1957   0.1340   0.1859   1.8124   3.1574
    10.2798  11.0896  13.2383  15.0088

     occupation numbers 
     1.0000   1.0000   1.0000   1.0000   1.0000   1.0000   1.0000   1.0000
     0.0000   0.0000   0.0000   0.0000

          k = 0.0832 0.4321 0.1224 (  7033 PWs)   bands (ev):

   -10.8577 -10.7860  -3.2464  -3.2145   0.1461   0.1721   2.1242   2.7935
    10.3553  10.7607  14.1123  14.9238

     occupation numbers 
     1.0000   1.0000   1.0000   1.0000   1.0000   1.0000   1.0000   1.0000
     0.0000   0.0000   0.0000   0.0000

          k = 0.0832 0.5281 0.0000 (  7048 PWs)   bands (ev):

   -10.2425 -10.1654  -4.2928  -4.2335  -0.1549  -0.1009   2.8977   3.8474
     8.9212  10.0035  14.1668  14.8664

     occupation numbers 
     1.0000   1.0000   1.0000   1.0000   1.0000   1.0000   1.0000   1.0000
     0.0000   0.0000   0.0000   0.0000

          k = 0.0832 0.5281 0.1224 (  7029 PWs)   bands (ev):

   -10.2232 -10.1847  -4.2810  -4.2513  -0.1420  -0.1150   3.1378   3.6162
     9.0677   9.6067  14.5407  14.8413

     occupation numbers 
     1.0000   1.0000   1.0000   1.0000   1.0000   1.0000   1.0000   1.0000
     0.0000   0.0000   0.0000   0.0000

          k = 0.1663 0.2881 0.0000 (  7027 PWs)   bands (ev):

   -11.8259 -11.6354  -1.1529  -1.1468   0.4183   0.4207   0.4619   2.0395
    11.9136  12.5644  12.7548  16.5575

     occupation numbers 
     1.0000   1.0000   1.0000   1.0000   1.0000   1.0000   1.0000   1.0000
     0.0000   0.0000   0.0000   0.0000

          k = 0.1663 0.2881 0.1224 (  7016 PWs)   bands (ev):

   -11.7798 -11.6845  -1.1578  -1.1532   0.4261   0.4429   0.7926   1.5864
    12.0296  12.3718  13.8300  16.0497

     occupation numbers 
     1.0000   1.0000   1.0000   1.0000   1.0000   1.0000   1.0000   1.0000
     0.0000   0.0000   0.0000   0.0000

          k = 0.1663 0.3841 0.0000 (  7040 PWs)   bands (ev):

   -11.0622 -10.9053  -2.5119  -2.4752  -0.4478  -0.3975   1.5443   2.9656
    11.0504  11.4276  13.2001  16.5714

     occupation numbers 
     1.0000   1.0000   1.0000   1.0000   1.0000   1.0000   1.0000   1.0000
     0.0000   0.0000   0.0000   0.0000

          k = 0.1663 0.3841 0.1224 (  7044 PWs)   bands (ev):

   -11.0239 -10.9455  -2.5055  -2.4870  -0.4372  -0.4121   1.8713   2.5769
    10.9933  11.2165  14.3634  16.1965

     occupation numbers 
     1.0000   1.0000   1.0000   1.0000   1.0000   1.0000   1.0000   1.0000
     0.0000   0.0000   0.0000   0.0000

          k = 0.1663 0.4801 0.0000 (  7040 PWs)   bands (ev):

   -10.3154 -10.2119  -3.7034  -3.6433  -0.9705  -0.9132   2.7421   3.8160
     9.5373  10.2648  14.6131  16.3698

     occupation numbers 
     1.0000   1.0000   1.0000   1.0000   1.0000   1.0000   1.0000   1.0000
     0.0000   0.0000   0.0000   0.0000

          k = 0.1663 0.4801 0.1224 (  7046 PWs)   bands (ev):

   -10.2898 -10.2381  -3.6908  -3.6607  -0.9577  -0.9290   3.0057   3.5443
     9.6113   9.9814  15.3675  16.2424

     occupation numbers 
     1.0000   1.0000   1.0000   1.0000   1.0000   1.0000   1.0000   1.0000
     0.0000   0.0000   0.0000   0.0000

          k = 0.1663 0.5762 0.0000 (  7063 PWs)   bands (ev):

    -9.9569  -9.9077  -4.2073  -4.1434  -1.1426  -1.0828   3.4106   4.1321
     8.8706   9.7056  15.4697  16.2914

     occupation numbers 
     1.0000   1.0000   1.0000   1.0000   1.0000   1.0000   1.0000   1.0000
     0.0000   0.0000   0.0000   0.0000

          k = 0.1663 0.5762 0.1224 (  7048 PWs)   bands (ev):

    -9.9445  -9.9199  -4.1939  -4.1620  -1.1291  -1.0992   3.6085   3.9746
     8.9581   9.3787  15.8974  16.2574

     occupation numbers 
     1.0000   1.0000   1.0000   1.0000   1.0000   1.0000   1.0000   1.0000
     0.0000   0.0000   0.0000   0.0000

          k = 0.2495 0.4321 0.0000 (  7043 PWs)   bands (ev):

   -10.3491 -10.2356  -3.2304  -3.2004  -1.5251  -1.4828   2.6722   3.7966
     9.9293  10.3596  14.6761  16.6202

     occupation numbers 
     1.0000   1.0000   1.0000   1.0000   1.0000   1.0000   1.0000   1.0000
     0.0000   0.0000   0.0000   0.0000

          k = 0.2495 0.4321 0.1224 (  7057 PWs)   bands (ev):

   -10.3211 -10.2644  -3.2244  -3.2096  -1.5169  -1.4958   2.9451   3.5081
     9.9310  10.1646  15.5355  16.5772

     occupation numbers 
     1.0000   1.0000   1.0000   1.0000   1.0000   1.0000   1.0000   1.0000
     0.0000   0.0000   0.0000   0.0000

          k = 0.2495 0.5281 0.0000 (  7061 PWs)   bands (ev):

    -9.8164  -9.7634  -3.7627  -3.6872  -2.1350  -2.0873   3.6665   4.2982
     9.1301   9.5711  15.7801  16.2017

     occupation numbers 
     1.0000   1.0000   1.0000   1.0000   1.0000   1.0000   1.0000   1.0000
     0.0000   0.0000   0.0000   0.0000

          k = 0.2495 0.5281 0.1224 (  7059 PWs)   bands (ev):

    -9.8031  -9.7766  -3.7453  -3.7076  -2.1257  -2.1017   3.8474   4.1682
     9.1237   9.3523  16.1701  16.6833

     occupation numbers 
     1.0000   1.0000   1.0000   1.0000   1.0000   1.0000   1.0000   1.0000
     0.0000   0.0000   0.0000   0.0000

          k = 0.3326 0.5762 0.0000 (  7071 PWs)   bands (ev):

    -9.5985  -9.5985  -3.5698  -3.4396  -2.7956  -2.7956   4.2776   4.2777
     9.1474   9.1475  15.1806  17.4307

     occupation numbers 
     1.0000   1.0000   1.0000   1.0000   1.0000   1.0000   1.0000   1.0000
     0.0000   0.0000   0.0000   0.0000

          k = 0.3326 0.5762 0.1224 (  7062 PWs)   bands (ev):

    -9.5984  -9.5984  -3.5378  -3.4727  -2.7992  -2.7991   4.3211   4.3211
     9.0223   9.0224  15.7054  17.1024

     occupation numbers 
     1.0000   1.0000   1.0000   1.0000   1.0000   1.0000   1.0000   1.0000
     0.0000   0.0000   0.0000   0.0000

     the Fermi energy is     6.0580 ev

!    total energy              =     -53.65231164 Ry
     estimated scf accuracy    <       0.00000088 Ry
     smearing contrib. (-TS)   =       0.00000000 Ry
     internal energy E=F+TS    =     -53.65231164 Ry

     The total energy is F=E-TS. E is the sum of the following terms:
     one-electron contribution =     -17.98133568 Ry
     hartree contribution      =      17.17927927 Ry
     xc contribution           =     -17.31044829 Ry
     ewald contribution        =     -35.51916792 Ry
     Dispersion Correction     =      -0.02063903 Ry

     convergence has been achieved in   7 iterations

     Forces acting on atoms (cartesian axes, Ry/au):

     atom    1 type  1   force =     0.00000000   -0.00000000    0.00000000
     atom    2 type  2   force =    -0.00000000   -0.00000000    0.00000000
     atom    3 type  2   force =     0.00000000    0.00000000    0.00000000
     atom    4 type  1   force =    -0.00000000    0.00000000    0.00000000
     The non-local contrib.  to forces
     atom    1 type  1   force =    -0.00000000    0.00000000    0.00000000
     atom    2 type  2   force =     0.00000000    0.00000000    0.00000000
     atom    3 type  2   force =    -0.00000000   -0.00000000    0.00000000
     atom    4 type  1   force =     0.00000000   -0.00000000    0.00000000
     The ionic contribution  to forces
     atom    1 type  1   force =     0.00000770   -0.00000445   -0.00000000
     atom    2 type  2   force =    -0.00000771    0.00000445   -0.00000000
     atom    3 type  2   force =     0.00000771   -0.00000445    0.00000000
     atom    4 type  1   force =    -0.00000770    0.00000445    0.00000000
     The local contribution  to forces
     atom    1 type  1   force =    -0.00000000   -0.00000000    0.00000000
     atom    2 type  2   force =    -0.00003352    0.00001935    0.00000000
     atom    3 type  2   force =     0.00000000    0.00000000    0.00000000
     atom    4 type  1   force =     0.00000416   -0.00000240    0.00000000
     The core correction contribution to forces
     atom    1 type  1   force =    -0.00000000   -0.00000001    0.00000000
     atom    2 type  2   force =     0.00000141   -0.00000084    0.00000000
     atom    3 type  2   force =    -0.00000001   -0.00000002   -0.00000000
     atom    4 type  1   force =     0.00000020   -0.00000013    0.00000000
     The Hubbard contrib.    to forces
     atom    1 type  1   force =     0.00000000    0.00000000    0.00000000
     atom    2 type  2   force =     0.00000000    0.00000000    0.00000000
     atom    3 type  2   force =     0.00000000    0.00000000    0.00000000
     atom    4 type  1   force =     0.00000000    0.00000000    0.00000000
     The SCF correction term to forces
     atom    1 type  1   force =    -0.00000000   -0.00000000    0.00000000
     atom    2 type  2   force =     0.00000000   -0.00000000    0.00000000
     atom    3 type  2   force =    -0.00000002    0.00000001    0.00000000
     atom    4 type  1   force =    -0.00000000    0.00000000    0.00000000

     TS-VDW contribution to forces
     atom    1 type  1   force =    -0.00056770    0.00024023   -0.00000661
     atom    2 type  2   force =     0.00042430   -0.00023014   -0.00000128
     atom    3 type  2   force =    -0.00044031    0.00018284    0.00000125
     atom    4 type  1   force =     0.00052035   -0.00029489    0.00000671

     Total force =     0.000000     Total SCF correction =     0.000000


     Computing stress (Cartesian axis) and pressure

          total   stress  (Ry/bohr**3)                   (kbar)     P=       -6.76
  -0.00005605  -0.00000000  -0.00000000           -8.24       -0.00       -0.00
  -0.00000000  -0.00005605  -0.00000000           -0.00       -8.24       -0.00
   0.00000000   0.00000000  -0.00002578            0.00        0.00       -3.79

     kinetic stress (kbar)  14077.21     -0.00     -0.00
                               -0.00  14077.21      0.00
                               -0.00      0.00  15389.91

     local   stress (kbar) -18917.42      0.01      0.00
                                0.01 -18917.41     -0.00
                                0.00     -0.00  20849.31

     nonloc. stress (kbar)  -2312.67     -0.00      0.00
                               -0.00  -2312.67     -0.00
                                0.00     -0.00  -2250.60

     hartree stress (kbar)   7575.18     -0.00     -0.00
                               -0.00   7575.18      0.00
                               -0.00      0.00  -5130.41

     exc-cor stress (kbar)  -1403.23     -0.00      0.00
                               -0.00  -1403.23      0.00
                                0.00      0.00  -1500.66

     corecor stress (kbar)  -1572.97      0.00      0.00
                                0.00  -1572.97     -0.00
                                0.00     -0.00  -1544.47

     ewald   stress (kbar)   2544.80     -0.02     -0.00
                               -0.02   2544.78     -0.00
                               -0.00     -0.00 -25806.40

     hubbard stress (kbar)      0.00      0.00      0.00
                                0.00      0.00      0.00
                                0.00      0.00      0.00

     DFT-D   stress (kbar)      0.00      0.00      0.00
                                0.00      0.00      0.00
                                0.00      0.00      0.00

     XDM     stress (kbar)      0.00      0.00      0.00
                                0.00      0.00      0.00
                                0.00      0.00      0.00

     dft-nl  stress (kbar)      0.00      0.00      0.00
                                0.00      0.00      0.00
                                0.00      0.00      0.00

     TS-vdW  stress (kbar)      0.97     -0.49     -0.00
                               -0.49      0.74      0.00
                               -0.00      0.00    -10.47

     MDB     stress (kbar)      0.00      0.00      0.00
                                0.00      0.00      0.00
                                0.00      0.00      0.00

     3D-RISM stress (kbar)      0.00      0.00      0.00
                                0.00      0.00      0.00
                                0.00      0.00      0.00

     Energy error            =      2.8E-05 Ry
     Gradient error          =      5.2E-21 Ry/Bohr
     Cell gradient error     =      8.2E+00 kbar

     number of scf cycles    =   2
     number of bfgs steps    =   1

     enthalpy           old  =     -53.6523394420 Ry
     enthalpy           new  =     -53.6523116421 Ry

     CASE: enthalpy          _new > enthalpy          _old

     new trust radius        =       0.0025386804 bohr
     new conv_thr            =       0.0000010000 Ry

     new unit-cell volume =    251.70614 a.u.^3 (    37.29900 Ang^3 )
     density =      2.13694 g/cm^3

CELL_PARAMETERS (alat=  4.74000000)
   1.000800930   0.000000000   0.000000000
  -0.500400465   0.866719029   0.000000000
   0.000000000   0.000000000   2.724788211

ATOMIC_POSITIONS (crystal)
B             0.0000000000        0.0000000000        0.0000000000    0   0   0
N             0.6666670000        0.3333330000        0.0000000000    0   0   0
N             0.0000000000        0.0000000000        0.5000000000
B             0.6666670000        0.3333330000        0.5000000000



     Writing config-only to output data dir ./tmp/BNBULK_AA1_PBE_vdW_ts.save/
     NEW-OLD atomic charge density approx. for the potential
     extrapolated charge   15.96778, renormalised to   16.00000

     total cpu time spent up to now is       21.7 secs

     Self-consistent Calculation

     iteration #  1     ecut=   140.00 Ry     beta= 0.70
     Davidson diagonalization with overlap

---- Real-time Memory Report at c_bands before calling an iterative solver
             0 MiB given to the printing process from OS
             0 MiB allocation reported by mallinfo(arena+hblkhd)
             0 MiB available memory on the node where the printing process lives
------------------
     ethr =  1.00E-06,  avg # of iterations =  2.0

     total cpu time spent up to now is       22.7 secs

     total energy              =     -53.65209295 Ry
     estimated scf accuracy    <       0.00009943 Ry

     iteration #  2     ecut=   140.00 Ry     beta= 0.70
     Davidson diagonalization with overlap

---- Real-time Memory Report at c_bands before calling an iterative solver
             0 MiB given to the printing process from OS
             0 MiB allocation reported by mallinfo(arena+hblkhd)
             0 MiB available memory on the node where the printing process lives
------------------
     ethr =  6.21E-07,  avg # of iterations =  3.1

     total cpu time spent up to now is       23.8 secs

     total energy              =     -53.65222719 Ry
     estimated scf accuracy    <       0.00028429 Ry

     iteration #  3     ecut=   140.00 Ry     beta= 0.70
     Davidson diagonalization with overlap

---- Real-time Memory Report at c_bands before calling an iterative solver
             0 MiB given to the printing process from OS
             0 MiB allocation reported by mallinfo(arena+hblkhd)
             0 MiB available memory on the node where the printing process lives
------------------
     ethr =  6.21E-07,  avg # of iterations =  1.7

     total cpu time spent up to now is       24.7 secs

     total energy              =     -53.65221748 Ry
     estimated scf accuracy    <       0.00005617 Ry

     iteration #  4     ecut=   140.00 Ry     beta= 0.70
     Davidson diagonalization with overlap

---- Real-time Memory Report at c_bands before calling an iterative solver
             0 MiB given to the printing process from OS
             0 MiB allocation reported by mallinfo(arena+hblkhd)
             0 MiB available memory on the node where the printing process lives
------------------
     ethr =  3.51E-07,  avg # of iterations =  2.0

     total cpu time spent up to now is       25.6 secs

     End of self-consistent calculation

          k = 0.0000 0.0000 0.0000 (  7003 PWs)   bands (ev):

   -13.3530 -13.1150  -1.7107   0.1482   3.0100   3.0100   3.0379   3.0379
     9.4158  14.2537  15.9492  15.9500

     occupation numbers 
     1.0000   1.0000   1.0000   1.0000   1.0000   1.0000   1.0000   1.0000
     0.0000   0.0000   0.0000   0.0000

          k = 0.0000 0.0000 0.1223 (  7020 PWs)   bands (ev):

   -13.2958 -13.1769  -1.3142  -0.4014   3.0169   3.0169   3.0309   3.0309
    10.5089  12.8073  15.9753  15.9953

     occupation numbers 
     1.0000   1.0000   1.0000   1.0000   1.0000   1.0000   1.0000   1.0000
     0.0000   0.0000   0.0000   0.0000

          k =-0.0000 0.0961 0.0000 (  6985 PWs)   bands (ev):

   -13.2181 -12.9840  -1.5253   0.3163   2.4557   2.4783   2.7513   2.7825
     9.6624  14.1935  15.7568  15.9533

     occupation numbers 
     1.0000   1.0000   1.0000   1.0000   1.0000   1.0000   1.0000   1.0000
     0.0000   0.0000   0.0000   0.0000

          k =-0.0000 0.0961 0.1223 (  7009 PWs)   bands (ev):

   -13.1618 -13.0448  -1.1325  -0.2285   2.4635   2.4759   2.7591   2.7747
    10.7280  12.9262  15.8456  15.9310

     occupation numbers 
     1.0000   1.0000   1.0000   1.0000   1.0000   1.0000   1.0000   1.0000
     0.0000   0.0000   0.0000   0.0000

[...]
     0.0000   0.0000   0.0000   0.0000

          k =-0.0000 0.4804 0.0000 (  7010 PWs)   bands (ev):

   -10.5518 -10.4326  -3.9009  -3.8337   0.3849   0.4364   2.3349   3.5443
     9.4896  10.5812  13.4699  14.4084

     occupation numbers 
     1.0000   1.0000   1.0000   1.0000   1.0000   1.0000   1.0000   1.0000
     0.0000   0.0000   0.0000   0.0000

          k =-0.0000 0.4804 0.1229 (  7032 PWs)   bands (ev):

   -10.5224 -10.4628  -3.8873  -3.8536   0.3977   0.4235   2.6228   3.2276
     9.6367  10.1772  13.9846  14.3750

     occupation numbers 
     1.0000   1.0000   1.0000   1.0000   1.0000   1.0000   1.0000   1.0000
     0.0000   0.0000   0.0000   0.0000

          k = 0.0000-0.5765-0.0000 (  7032 PWs)   bands (ev):

   -10.1590 -10.1001  -4.4800  -4.4253   0.2428   0.2951   3.0229   3.9119
     8.6984   9.9321  13.8673  14.3371

     occupation numbers 
     1.0000   1.0000   1.0000   1.0000   1.0000   1.0000   1.0000   1.0000
     0.0000   0.0000   0.0000   0.0000

          k = 0.0000-0.5765 0.1229 (  7032 PWs)   bands (ev):

   -10.1441 -10.1147  -4.4698  -4.4424   0.2558   0.2820   3.2526   3.7021
     8.8684   9.4806  14.1215  14.3258

     occupation numbers 
     1.0000   1.0000   1.0000   1.0000   1.0000   1.0000   1.0000   1.0000
     0.0000   0.0000   0.0000   0.0000

          k = 0.0832 0.1441 0.0000 (  6991 PWs)   bands (ev):

   -12.9154 -12.6810  -1.1360   0.7097   1.5754   1.5888   2.2699   2.3036
    10.1688  14.0708  15.8751  15.9649

     occupation numbers 
     1.0000   1.0000   1.0000   1.0000   1.0000   1.0000   1.0000   1.0000
     0.0000   0.0000   0.0000   0.0000

          k = 0.0832 0.1441 0.1229 (  7009 PWs)   bands (ev):

   -12.8590 -12.7419  -0.7441   0.1590   1.5845   1.5961   2.2785   2.2952
    11.1846  13.1457  15.9009  15.9549

     occupation numbers 
     1.0000   1.0000   1.0000   1.0000   1.0000   1.0000   1.0000   1.0000
     0.0000   0.0000   0.0000   0.0000

          k = 0.0832 0.2402 0.0000 (  7016 PWs)   bands (ev):

   -12.3994 -12.1814  -0.4169   0.0896   0.1164   1.3482   1.4790   1.5208
    10.9847  13.4853  14.3289  15.6757

     occupation numbers 
     1.0000   1.0000   1.0000   1.0000   1.0000   1.0000   1.0000   1.0000
     0.0000   0.0000   0.0000   0.0000

          k = 0.0832 0.2402 0.1229 (  7005 PWs)   bands (ev):

   -12.3468 -12.2379  -0.1034   0.0872   0.1680   0.8560   1.4910   1.5114
    11.8062  13.0582  14.7071  15.5756

     occupation numbers 
     1.0000   1.0000   1.0000   1.0000   1.0000   1.0000   1.0000   1.0000
     0.0000   0.0000   0.0000   0.0000

          k = 0.0832 0.3363 0.0000 (  7022 PWs)   bands (ev):

   -11.6764 -11.4852  -1.6299  -1.5795   0.6128   0.7310   0.7801   2.2349
    12.0765  12.1893  12.6068  15.3412

     occupation numbers 
     1.0000   1.0000   1.0000   1.0000   1.0000   1.0000   1.0000   1.0000
     0.0000   0.0000   0.0000   0.0000

          k = 0.0832 0.3363 0.1229 (  7021 PWs)   bands (ev):

   -11.6300 -11.5345  -1.6225  -1.5966   0.7382   0.7644   0.9832   1.7798
    11.8922  12.1894  13.7222  15.1749

     occupation numbers 
     1.0000   1.0000   1.0000   1.0000   1.0000   1.0000   1.0000   1.0000
     0.0000   0.0000   0.0000   0.0000

          k = 0.0832 0.4324 0.0000 (  7037 PWs)   bands (ev):

   -10.8534 -10.7056  -3.2176  -3.1517   0.1788   0.2325   1.8444   3.2160
    10.3283  11.1567  13.3062  15.0749

     occupation numbers 
     1.0000   1.0000   1.0000   1.0000   1.0000   1.0000   1.0000   1.0000
     0.0000   0.0000   0.0000   0.0000

          k = 0.0832 0.4324 0.1229 (  7033 PWs)   bands (ev):

   -10.8172 -10.7433  -3.2042  -3.1711   0.1913   0.2182   2.1623   2.8447
    10.4057  10.8208  14.1871  14.9937

     occupation numbers 
     1.0000   1.0000   1.0000   1.0000   1.0000   1.0000   1.0000   1.0000
     0.0000   0.0000   0.0000   0.0000

          k = 0.0832 0.5285 0.0000 (  7048 PWs)   bands (ev):

   -10.2005 -10.1211  -4.2528  -4.1917  -0.1105  -0.0548   2.9339   3.9031
     8.9668  10.0694  14.2340  14.9323

     occupation numbers 
     1.0000   1.0000   1.0000   1.0000   1.0000   1.0000   1.0000   1.0000
     0.0000   0.0000   0.0000   0.0000

          k = 0.0832 0.5285 0.1229 (  7029 PWs)   bands (ev):

   -10.1807 -10.1409  -4.2407  -4.2102  -0.0972  -0.0693   3.1791   3.6676
     9.1146   9.6638  14.6115  14.9096

     occupation numbers 
     1.0000   1.0000   1.0000   1.0000   1.0000   1.0000   1.0000   1.0000
     0.0000   0.0000   0.0000   0.0000

          k = 0.1664 0.2883 0.0000 (  7027 PWs)   bands (ev):

   -11.7890 -11.5928  -1.1071  -1.1002   0.4490   0.4639   0.5088   2.0986
    11.9836  12.6364  12.8100  16.6174

     occupation numbers 
     1.0000   1.0000   1.0000   1.0000   1.0000   1.0000   1.0000   1.0000
     0.0000   0.0000   0.0000   0.0000

          k = 0.1664 0.2883 0.1229 (  7016 PWs)   bands (ev):

   -11.7415 -11.6434  -1.1121  -1.1069   0.4719   0.4888   0.8283   1.6365
    12.0936  12.4399  13.9059  16.1418

     occupation numbers 
     1.0000   1.0000   1.0000   1.0000   1.0000   1.0000   1.0000   1.0000
     0.0000   0.0000   0.0000   0.0000

          k = 0.1664 0.3843 0.0000 (  7040 PWs)   bands (ev):

   -11.0234 -10.8616  -2.4686  -2.4306  -0.4033  -0.3515   1.5755   3.0245
    11.1020  11.4943  13.2697  16.6373

     occupation numbers 
     1.0000   1.0000   1.0000   1.0000   1.0000   1.0000   1.0000   1.0000
     0.0000   0.0000   0.0000   0.0000

          k = 0.1664 0.3843 0.1229 (  7044 PWs)   bands (ev):

   -10.9840 -10.9031  -2.4619  -2.4428  -0.3925  -0.3666   1.9087   2.6280
    11.0462  11.2781  14.4432  16.2758

     occupation numbers 
     1.0000   1.0000   1.0000   1.0000   1.0000   1.0000   1.0000   1.0000
     0.0000   0.0000   0.0000   0.0000

          k = 0.1664 0.4804 0.0000 (  7040 PWs)   bands (ev):

   -10.2741 -10.1673  -3.6628  -3.6008  -0.9267  -0.8676   2.7773   3.8729
     9.5853  10.3298  14.6815  16.4363

     occupation numbers 
     1.0000   1.0000   1.0000   1.0000   1.0000   1.0000   1.0000   1.0000
     0.0000   0.0000   0.0000   0.0000

          k = 0.1664 0.4804 0.1229 (  7046 PWs)   bands (ev):

   -10.2477 -10.1943  -3.6498  -3.6188  -0.9136  -0.8840   3.0463   3.5959
     9.6604  10.0392  15.4428  16.3132

     occupation numbers 
     1.0000   1.0000   1.0000   1.0000   1.0000   1.0000   1.0000   1.0000
     0.0000   0.0000   0.0000   0.0000

          k = 0.1664 0.5765 0.0000 (  7063 PWs)   bands (ev):

    -9.9138  -9.8630  -4.1679  -4.1022  -1.0991  -1.0374   3.4493   4.1858
     8.9183   9.7695  15.5374  16.3579

     occupation numbers 
     1.0000   1.0000   1.0000   1.0000   1.0000   1.0000   1.0000   1.0000
     0.0000   0.0000   0.0000   0.0000

          k = 0.1664 0.5765 0.1229 (  7048 PWs)   bands (ev):

    -9.9010  -9.8756  -4.1542  -4.1214  -1.0852  -1.0542   3.6518   4.0257
     9.0058   9.4347  15.9698  16.3263

     occupation numbers 
     1.0000   1.0000   1.0000   1.0000   1.0000   1.0000   1.0000   1.0000
     0.0000   0.0000   0.0000   0.0000

          k = 0.2496 0.4324 0.0000 (  7043 PWs)   bands (ev):

   -10.3080 -10.1910  -3.1887  -3.1581  -1.4813  -1.4380   2.7069   3.8540
     9.9787  10.4244  14.7454  16.6721

     occupation numbers 
     1.0000   1.0000   1.0000   1.0000   1.0000   1.0000   1.0000   1.0000
     0.0000   0.0000   0.0000   0.0000

          k = 0.2496 0.4324 0.1229 (  7057 PWs)   bands (ev):

   -10.2792 -10.2207  -3.1827  -3.1675  -1.4730  -1.4514   2.9855   3.5598
     9.9812  10.2230  15.6126  16.6420

     occupation numbers 
     1.0000   1.0000   1.0000   1.0000   1.0000   1.0000   1.0000   1.0000
     0.0000   0.0000   0.0000   0.0000

          k = 0.2496 0.5285 0.0000 (  7061 PWs)   bands (ev):

    -9.7729  -9.7183  -3.7239  -3.6461  -2.0915  -2.0425   3.7064   4.3511
     9.1811   9.6328  15.8249  16.2697

     occupation numbers 
     1.0000   1.0000   1.0000   1.0000   1.0000   1.0000   1.0000   1.0000
     0.0000   0.0000   0.0000   0.0000

          k = 0.2496 0.5285 0.1229 (  7059 PWs)   bands (ev):

    -9.7592  -9.7319  -3.7060  -3.6671  -2.0820  -2.0574   3.8916   4.2192
     9.1733   9.4077  16.2205  16.7540

     occupation numbers 
     1.0000   1.0000   1.0000   1.0000   1.0000   1.0000   1.0000   1.0000
     0.0000   0.0000   0.0000   0.0000

          k = 0.3328 0.5765 0.0000 (  7071 PWs)   bands (ev):

    -9.5536  -9.5536  -3.5341  -3.4002  -2.7500  -2.7499   4.3239   4.3240
     9.2041   9.2042  15.2218  17.4979

     occupation numbers 
     1.0000   1.0000   1.0000   1.0000   1.0000   1.0000   1.0000   1.0000
     0.0000   0.0000   0.0000   0.0000

          k = 0.3328 0.5765 0.1229 (  7062 PWs)   bands (ev):

    -9.5534  -9.5534  -3.5012  -3.4342  -2.7537  -2.7536   4.3693   4.3694
     9.0744   9.0745  15.7517  17.1606

     occupation numbers 
     1.0000   1.0000   1.0000   1.0000   1.0000   1.0000   1.0000   1.0000
     0.0000   0.0000   0.0000   0.0000

     the Fermi energy is     6.1127 ev

!    total energy              =     -53.65234898 Ry
     estimated scf accuracy    <          5.7E-09 Ry
     smearing contrib. (-TS)   =       0.00000000 Ry
     internal energy E=F+TS    =     -53.65234898 Ry

     The total energy is F=E-TS. E is the sum of the following terms:
     one-electron contribution =     -17.70516718 Ry
     hartree contribution      =      17.06958989 Ry
     xc contribution           =     -17.31524144 Ry
     ewald contribution        =     -35.68073177 Ry
     Dispersion Correction     =      -0.02079848 Ry

     convergence has been achieved in   2 iterations

     Forces acting on atoms (cartesian axes, Ry/au):

     atom    1 type  1   force =     0.00000000    0.00000000    0.00000000
     atom    2 type  2   force =     0.00000000    0.00000000    0.00000000
     atom    3 type  2   force =     0.00000000    0.00000000    0.00000000
     atom    4 type  1   force =    -0.00000000    0.00000000   -0.00000000
     The non-local contrib.  to forces
     atom    1 type  1   force =    -0.00000000    0.00000000    0.00000000
     atom    2 type  2   force =    -0.00000000   -0.00000000   -0.00000000
     atom    3 type  2   force =     0.00000000    0.00000000    0.00000000
     atom    4 type  1   force =     0.00000000   -0.00000000   -0.00000000
     The ionic contribution  to forces
     atom    1 type  1   force =     0.00000771   -0.00000445   -0.00000000
     atom    2 type  2   force =    -0.00000771    0.00000445   -0.00000000
     atom    3 type  2   force =     0.00000771   -0.00000445   -0.00000000
     atom    4 type  1   force =    -0.00000771    0.00000445   -0.00000000
     The local contribution  to forces
     atom    1 type  1   force =    -0.00000000   -0.00000000    0.00000000
     atom    2 type  2   force =    -0.00003348    0.00001933    0.00000000
     atom    3 type  2   force =     0.00000000    0.00000000    0.00000000
     atom    4 type  1   force =     0.00000416   -0.00000241    0.00000000
     The core correction contribution to forces
     atom    1 type  1   force =    -0.00000000   -0.00000001   -0.00000000
     atom    2 type  2   force =     0.00000141   -0.00000084    0.00000000
     atom    3 type  2   force =    -0.00000001   -0.00000002   -0.00000000
     atom    4 type  1   force =     0.00000020   -0.00000013    0.00000000
     The Hubbard contrib.    to forces
     atom    1 type  1   force =     0.00000000    0.00000000    0.00000000
     atom    2 type  2   force =     0.00000000    0.00000000    0.00000000
     atom    3 type  2   force =     0.00000000    0.00000000    0.00000000
     atom    4 type  1   force =     0.00000000    0.00000000    0.00000000
     The SCF correction term to forces
     atom    1 type  1   force =     0.00000000    0.00000000   -0.00000000
     atom    2 type  2   force =    -0.00000000    0.00000000   -0.00000000
     atom    3 type  2   force =     0.00000000   -0.00000000   -0.00000000
     atom    4 type  1   force =    -0.00000000    0.00000000   -0.00000000

     TS-VDW contribution to forces
     atom    1 type  1   force =    -0.00058217    0.00023754    0.00000680
     atom    2 type  2   force =     0.00043890   -0.00024449    0.00000135
     atom    3 type  2   force =    -0.00045031    0.00017885   -0.00000130
     atom    4 type  1   force =     0.00053800   -0.00030876   -0.00000696

     Total force =     0.000000     Total SCF correction =     0.000000


     Computing stress (Cartesian axis) and pressure

          total   stress  (Ry/bohr**3)                   (kbar)     P=       -2.99
  -0.00001820   0.00000000  -0.00000000           -2.68        0.00       -0.00
   0.00000000  -0.00001820  -0.00000000            0.00       -2.68       -0.00
  -0.00000000  -0.00000000  -0.00002451           -0.00       -0.00       -3.61

     kinetic stress (kbar)  14155.46     -0.00      0.00
                               -0.00  14155.46      0.00
                                0.00     -0.00  15471.80

     local   stress (kbar) -18869.97      0.01      0.00
                                0.01 -18869.96     -0.00
                                0.00     -0.00  20827.30

     nonloc. stress (kbar)  -2326.18      0.00      0.00
                                0.00  -2326.18     -0.00
                                0.00     -0.00  -2262.76

     hartree stress (kbar)   7552.26     -0.00     -0.00
                               -0.00   7552.26      0.00
                               -0.00      0.00  -5098.54

     exc-cor stress (kbar)  -1411.08     -0.00      0.00
                               -0.00  -1411.08     -0.00
                                0.00     -0.00  -1508.85

     corecor stress (kbar)  -1581.06      0.00     -0.00
                                0.00  -1581.06     -0.00
                               -0.00     -0.00  -1552.32

     ewald   stress (kbar)   2477.01     -0.02     -0.00
                               -0.02   2476.98     -0.00
                               -0.00     -0.00 -25869.59

     hubbard stress (kbar)      0.00      0.00      0.00
                                0.00      0.00      0.00
                                0.00      0.00      0.00

     DFT-D   stress (kbar)      0.00      0.00      0.00
                                0.00      0.00      0.00
                                0.00      0.00      0.00

     XDM     stress (kbar)      0.00      0.00      0.00
                                0.00      0.00      0.00
                                0.00      0.00      0.00

     dft-nl  stress (kbar)      0.00      0.00      0.00
                                0.00      0.00      0.00
                                0.00      0.00      0.00

     TS-vdW  stress (kbar)      1.01     -0.52      0.00
                               -0.52      0.78     -0.00
                                0.00     -0.00    -10.64

     MDB     stress (kbar)      0.00      0.00      0.00
                                0.00      0.00      0.00
                                0.00      0.00      0.00

     3D-RISM stress (kbar)      0.00      0.00      0.00
                                0.00      0.00      0.00
                                0.00      0.00      0.00

     Message from routine bfgs:
     history already reset at previous step: exiting
     Energy error            =      6.7E-05 Ry
     Gradient error          =      9.0E-21 Ry/Bohr
     Cell gradient error     =      3.6E+00 kbar

     bfgs failed after  12 scf cycles and   5 bfgs steps, convergence not achieved
     (criteria: energy <  1.0E-04 Ry, force <  1.0E-03 Ry/Bohr, cell <  5.0E-01 kbar)

     End of BFGS Geometry Optimization

     Final enthalpy           =     -53.6523489800 Ry

     File ./tmp/BNBULK_AA1_PBE_vdW_ts.bfgs deleted, as requested
Begin final coordinates
     new unit-cell volume =    250.95231 a.u.^3 (    37.18730 Ang^3 )
     density =      2.14336 g/cm^3

CELL_PARAMETERS (alat=  4.74000000)
   1.001456311   0.000000000   0.000000000
  -0.500728156   0.867286606   0.000000000
  -0.000000000  -0.000000000   2.713073260

ATOMIC_POSITIONS (crystal)
B             0.0000000000        0.0000000000        0.0000000000    0   0   0
N             0.6666670000        0.3333330000        0.0000000000    0   0   0
N             0.0000000000        0.0000000000        0.5000000000
B             0.6666670000        0.3333330000        0.5000000000
End final coordinates



     Writing config-only to output data dir ./tmp/BNBULK_AA1_PBE_vdW_ts.save/

     Writing all to output data dir ./tmp/BNBULK_AA1_PBE_vdW_ts.save/

     init_run     :      1.13s CPU      1.16s WALL (       1 calls)
     electrons    :     84.21s CPU     87.01s WALL (      12 calls)
     update_pot   :      8.08s CPU      8.31s WALL (      11 calls)
     forces       :      4.88s CPU      4.92s WALL (      12 calls)
     stress       :     15.61s CPU     16.32s WALL (      12 calls)

     Called by init_run:
     wfcinit      :      0.37s CPU      0.38s WALL (       1 calls)
     wfcinit:atom :      0.01s CPU      0.01s WALL (      38 calls)
     wfcinit:wfcr :      0.33s CPU      0.33s WALL (      38 calls)
     potinit      :      0.20s CPU      0.22s WALL (       1 calls)
     hinit0       :      0.50s CPU      0.50s WALL (       1 calls)
     tsvdw_pair   :      0.00s CPU      0.00s WALL (      97 calls)

     Called by electrons:
     c_bands      :     71.09s CPU     71.17s WALL (      87 calls)
     sum_band     :      8.44s CPU      8.70s WALL (      87 calls)
     v_of_rho     :      4.98s CPU      6.91s WALL (      97 calls)
     v_h          :      0.05s CPU      0.05s WALL (      97 calls)
     v_xc         :      1.03s CPU      1.25s WALL (     121 calls)
     mix_rho      :      0.21s CPU      0.83s WALL (      87 calls)
     tsvdw_rhotot :      0.11s CPU      0.18s WALL (      97 calls)
     tsvdw_screen :      2.54s CPU      3.79s WALL (      97 calls)
     tsvdw_veff   :      0.12s CPU      0.12s WALL (      97 calls)
     tsvdw_dveff  :      0.32s CPU      0.33s WALL (      97 calls)
     tsvdw_energy :      0.78s CPU      0.78s WALL (      97 calls)

     Called by c_bands:
     init_us_2    :      1.60s CPU      1.62s WALL (    7562 calls)
     init_us_2:cp :      1.59s CPU      1.60s WALL (    7562 calls)
     cegterg      :     67.92s CPU     67.84s WALL (    3306 calls)

     Called by sum_band:
     sum_band:wei :      0.00s CPU      0.00s WALL (      87 calls)
     sum_band:loo :      8.28s CPU      8.52s WALL (      87 calls)
     sum_band:buf :      0.16s CPU      0.16s WALL (    3306 calls)
     sum_band:ini :      0.62s CPU      0.63s WALL (    3306 calls)

     Called by *egterg:
     cdiaghg      :      1.97s CPU      2.00s WALL (   11024 calls)
     cegterg:over :      3.57s CPU      3.66s WALL (    8212 calls)
     cegterg:upda :      2.88s CPU      2.79s WALL (    8212 calls)
     cegterg:last :      4.16s CPU      3.37s WALL (    7036 calls)
     h_psi        :     52.94s CPU     53.10s WALL (   11556 calls)
     g_psi        :      0.37s CPU      0.51s WALL (    8212 calls)

     Called by h_psi:
     h_psi:calbec :      3.86s CPU      3.89s WALL (   11556 calls)
     vloc_psi     :     44.09s CPU     45.30s WALL (   11556 calls)
     add_vuspsi   :      4.55s CPU      3.40s WALL (   11556 calls)

     General routines
     calbec       :      5.04s CPU      5.07s WALL (   13836 calls)
     fft          :      0.81s CPU      0.84s WALL (    1271 calls)
     ffts         :      0.02s CPU      0.02s WALL (      87 calls)
     fftw         :     45.75s CPU     46.86s WALL (  247610 calls)
     davcio       :      0.00s CPU      0.00s WALL (      38 calls)

     Parallel routines

     PWSCF        :   1m54.14s CPU   1m58.02s WALL


   This run was terminated on:  18:43:10   6Apr2024            

=------------------------------------------------------------------------------=
   JOB DONE.
=------------------------------------------------------------------------------=
