
     Program PWSCF v.7.2 starts on 12Apr2024 at 13:53:44 

     This program is part of the open-source Quantum ESPRESSO suite
     for quantum simulation of materials; please cite
         "P. Giannozzi et al., J. Phys.:Condens. Matter 21 395502 (2009);
         "P. Giannozzi et al., J. Phys.:Condens. Matter 29 465901 (2017);
         "P. Giannozzi et al., J. Chem. Phys. 152 154105 (2020);
          URL http://www.quantum-espresso.org", 
     in publications or presentations arising from this work. More details at
     http://www.quantum-espresso.org/quote

     Parallel version (MPI & OpenMP), running on       8 processor cores
     Number of MPI processes:                 8
     Threads/MPI process:                     1

     MPI processes distributed on     1 nodes
     0 MiB available memory on the printing compute node when the environment starts

     Waiting for input...
     Reading input from standard input

     Current dimensions of program PWSCF are:
     Max number of different atomic species (ntypx) = 10
     Max number of k-points (npk) =  40000
     Max angular momentum in pseudopotentials (lmaxx) =  4

     IMPORTANT: XC functional enforced from input :
     Exchange-correlation= VDW-DF2-B86R
                           (   1   4  26   0   2   0   0)
     Any further DFT definition will be discarded
     Please, verify this is what you really want


     R & G space division:  proc/nbgrp/npool/nimage =       8
     Subspace diagonalization in iterative solution of the eigenvalue problem:
     a serial algorithm will be used


     Parallelization info
     --------------------
     sticks:   dense  smooth     PW     G-vecs:    dense   smooth      PW
     Min         107     107     31                 7025     7025    1089
     Max         109     109     32                 7033     7033    1098
     Sum         859     859    253                56215    56215    8753

     Using Slab Decomposition



     bravais-lattice index     =            4
     lattice parameter (alat)  =       4.7400  a.u.
     unit-cell volume          =     251.3875 (a.u.)^3
     number of atoms/cell      =            4
     number of atomic types    =            2
     number of electrons       =        16.00
     number of Kohn-Sham states=           12
     kinetic-energy cutoff     =     140.0000  Ry
     charge density cutoff     =     560.0000  Ry
     scf convergence threshold =      1.0E-06
     mixing beta               =       0.7000
     number of iterations used =            8  plain     mixing
     energy convergence thresh.=      1.0E-04
     force convergence thresh. =      1.0E-03
     press convergence thresh. =      5.0E-01
     Exchange-correlation= VDW-DF2-B86R
                           (   1   4  26   0   2   0   0)
     nstep                     =           50


     celldm(1)=   4.740000  celldm(2)=   0.000000  celldm(3)=   2.725700
     celldm(4)=   0.000000  celldm(5)=   0.000000  celldm(6)=   0.000000

     crystal axes: (cart. coord. in units of alat)
               a(1) = (   1.000000   0.000000   0.000000 )  
               a(2) = (  -0.500000   0.866025   0.000000 )  
               a(3) = (   0.000000   0.000000   2.725700 )  

     reciprocal axes: (cart. coord. in units 2 pi/alat)
               b(1) = (  1.000000  0.577350 -0.000000 )  
               b(2) = (  0.000000  1.154701  0.000000 )  
               b(3) = (  0.000000 -0.000000  0.366878 )  


     PseudoPot. # 1 for B  read from file:
     ../../../Pseudo/PBE/B.upf
     MD5 check sum: 72f82fc31bc892420d0cab7e25c88ab8
     Pseudo is Norm-conserving + core correction, Zval =  3.0
     Generated using ONCVPSP code by D. R. Hamann
     Using radial grid of 1534 points,  4 beta functions with: 
                l(1) =   0
                l(2) =   0
                l(3) =   1
                l(4) =   1

     PseudoPot. # 2 for N  read from file:
     ../../../Pseudo/PBE/N.upf
     MD5 check sum: d34365f73bb0e2ee98afc20ec3e87676
     Pseudo is Norm-conserving + core correction, Zval =  5.0
     Generated using ONCVPSP code by D. R. Hamann
     Using radial grid of 1058 points,  4 beta functions with: 
                l(1) =   0
                l(2) =   0
                l(3) =   1
                l(4) =   1

     atomic species   valence    mass     pseudopotential
        B              3.00    10.00000     B ( 1.00)
        N              5.00    14.00000     N ( 1.00)

     24 Sym. Ops., with inversion, found (12 have fractional translation)


                                    s                        frac. trans.

      isym =  1     identity                                     

 cryst.   s( 1) = (     1          0          0      )
                  (     0          1          0      )
                  (     0          0          1      )

 cart.    s( 1) = (  1.0000000  0.0000000  0.0000000 )
                  (  0.0000000  1.0000000  0.0000000 )
                  (  0.0000000  0.0000000  1.0000000 )


      isym =  2     180 deg rotation - cart. axis [0,0,1]        

 cryst.   s( 2) = (    -1          0          0      )    f =(  0.3333330 )
                  (     0         -1          0      )       ( -0.3333330 )
                  (     0          0          1      )       ( -0.5000000 )

 cart.    s( 2) = ( -1.0000000  0.0000000  0.0000000 )    f =(  0.4999995 )
                  (  0.0000000 -1.0000000  0.0000000 )       ( -0.2886748 )
                  (  0.0000000  0.0000000  1.0000000 )       ( -1.3628500 )


      isym =  3     180 deg rotation - cart. axis [0,1,0]        

 cryst.   s( 3) = (    -1          0          0      )
                  (     1          1          0      )
                  (     0          0         -1      )

 cart.    s( 3) = ( -1.0000000  0.0000000  0.0000000 )
                  (  0.0000000  1.0000000  0.0000000 )
                  (  0.0000000  0.0000000 -1.0000000 )


      isym =  4     180 deg rotation - cart. axis [1,0,0]        

 cryst.   s( 4) = (     1          0          0      )    f =(  0.3333340 )
                  (    -1         -1          0      )       ( -0.3333330 )
                  (     0          0         -1      )       (  0.5000000 )

 cart.    s( 4) = (  1.0000000  0.0000000  0.0000000 )    f =(  0.5000005 )
                  (  0.0000000 -1.0000000  0.0000000 )       ( -0.2886748 )
                  (  0.0000000  0.0000000 -1.0000000 )       (  1.3628500 )


      isym =  5      60 deg rotation - cryst. axis [0,0,1]       

 cryst.   s( 5) = (     1          1          0      )    f =(  0.3333340 )
                  (    -1          0          0      )       ( -0.3333330 )
                  (     0          0          1      )       ( -0.5000000 )

 cart.    s( 5) = (  0.5000000 -0.8660254  0.0000000 )    f =(  0.5000005 )
                  (  0.8660254  0.5000000  0.0000000 )       ( -0.2886748 )
                  (  0.0000000  0.0000000  1.0000000 )       ( -1.3628500 )


      isym =  6      60 deg rotation - cryst. axis [0,0,-1]      

 cryst.   s( 6) = (     0         -1          0      )    f =(  0.3333330 )
                  (     1          1          0      )       ( -0.3333340 )
                  (     0          0          1      )       ( -0.5000000 )

 cart.    s( 6) = (  0.5000000  0.8660254  0.0000000 )    f =(  0.5000000 )
                  ( -0.8660254  0.5000000  0.0000000 )       ( -0.2886757 )
                  (  0.0000000  0.0000000  1.0000000 )       ( -1.3628500 )


      isym =  7     120 deg rotation - cryst. axis [0,0,1]       

 cryst.   s( 7) = (     0          1          0      )
                  (    -1         -1          0      )
                  (     0          0          1      )

 cart.    s( 7) = ( -0.5000000 -0.8660254  0.0000000 )
                  (  0.8660254 -0.5000000  0.0000000 )
                  (  0.0000000  0.0000000  1.0000000 )


      isym =  8     120 deg rotation - cryst. axis [0,0,-1]      

 cryst.   s( 8) = (    -1         -1          0      )
                  (     1          0          0      )
                  (     0          0          1      )

 cart.    s( 8) = ( -0.5000000  0.8660254  0.0000000 )
                  ( -0.8660254 -0.5000000  0.0000000 )
                  (  0.0000000  0.0000000  1.0000000 )


      isym =  9     180 deg rotation - cryst. axis [1,-1,0]      

 cryst.   s( 9) = (     0         -1          0      )
                  (    -1          0          0      )
                  (     0          0         -1      )

 cart.    s( 9) = (  0.5000000 -0.8660254  0.0000000 )
                  ( -0.8660254 -0.5000000  0.0000000 )
                  (  0.0000000  0.0000000 -1.0000000 )


      isym = 10     180 deg rotation - cryst. axis [2,1,0]       

 cryst.   s(10) = (     1          1          0      )
                  (     0         -1          0      )
                  (     0          0         -1      )

 cart.    s(10) = (  0.5000000  0.8660254  0.0000000 )
                  (  0.8660254 -0.5000000  0.0000000 )
                  (  0.0000000  0.0000000 -1.0000000 )


      isym = 11     180 deg rotation - cryst. axis [0,1,0]       

 cryst.   s(11) = (    -1         -1          0      )    f =(  0.3333330 )
                  (     0          1          0      )       ( -0.3333340 )
                  (     0          0         -1      )       (  0.5000000 )

 cart.    s(11) = ( -0.5000000 -0.8660254  0.0000000 )    f =(  0.5000000 )
                  ( -0.8660254  0.5000000  0.0000000 )       ( -0.2886757 )
                  (  0.0000000  0.0000000 -1.0000000 )       (  1.3628500 )


      isym = 12     180 deg rotation - cryst. axis [1,1,0]       

 cryst.   s(12) = (     0          1          0      )    f =(  0.3333330 )
                  (     1          0          0      )       ( -0.3333330 )
                  (     0          0         -1      )       (  0.5000000 )

 cart.    s(12) = ( -0.5000000  0.8660254  0.0000000 )    f =(  0.4999995 )
                  (  0.8660254  0.5000000  0.0000000 )       ( -0.2886748 )
                  (  0.0000000  0.0000000 -1.0000000 )       (  1.3628500 )


      isym = 13     inversion                                    

 cryst.   s(13) = (    -1          0          0      )    f =(  0.3333330 )
                  (     0         -1          0      )       ( -0.3333330 )
                  (     0          0         -1      )       (  0.5000000 )

 cart.    s(13) = ( -1.0000000  0.0000000  0.0000000 )    f =(  0.4999995 )
                  (  0.0000000 -1.0000000  0.0000000 )       ( -0.2886748 )
                  (  0.0000000  0.0000000 -1.0000000 )       (  1.3628500 )


      isym = 14     inv. 180 deg rotation - cart. axis [0,0,1]   

 cryst.   s(14) = (     1          0          0      )
                  (     0          1          0      )
                  (     0          0         -1      )

 cart.    s(14) = (  1.0000000  0.0000000  0.0000000 )
                  (  0.0000000  1.0000000  0.0000000 )
                  (  0.0000000  0.0000000 -1.0000000 )


      isym = 15     inv. 180 deg rotation - cart. axis [0,1,0]   

 cryst.   s(15) = (     1          0          0      )    f =(  0.3333340 )
                  (    -1         -1          0      )       ( -0.3333330 )
                  (     0          0          1      )       ( -0.5000000 )

 cart.    s(15) = (  1.0000000  0.0000000  0.0000000 )    f =(  0.5000005 )
                  (  0.0000000 -1.0000000  0.0000000 )       ( -0.2886748 )
                  (  0.0000000  0.0000000  1.0000000 )       ( -1.3628500 )


      isym = 16     inv. 180 deg rotation - cart. axis [1,0,0]   

 cryst.   s(16) = (    -1          0          0      )
                  (     1          1          0      )
                  (     0          0          1      )

 cart.    s(16) = ( -1.0000000  0.0000000  0.0000000 )
                  (  0.0000000  1.0000000  0.0000000 )
                  (  0.0000000  0.0000000  1.0000000 )


      isym = 17     inv.  60 deg rotation - cryst. axis [0,0,1]  

 cryst.   s(17) = (    -1         -1          0      )
                  (     1          0          0      )
                  (     0          0         -1      )

 cart.    s(17) = ( -0.5000000  0.8660254  0.0000000 )
                  ( -0.8660254 -0.5000000  0.0000000 )
                  (  0.0000000  0.0000000 -1.0000000 )


      isym = 18     inv.  60 deg rotation - cryst. axis [0,0,-1] 

 cryst.   s(18) = (     0          1          0      )
                  (    -1         -1          0      )
                  (     0          0         -1      )

 cart.    s(18) = ( -0.5000000 -0.8660254  0.0000000 )
                  (  0.8660254 -0.5000000  0.0000000 )
                  (  0.0000000  0.0000000 -1.0000000 )


      isym = 19     inv. 120 deg rotation - cryst. axis [0,0,1]  

 cryst.   s(19) = (     0         -1          0      )    f =(  0.3333330 )
                  (     1          1          0      )       ( -0.3333340 )
                  (     0          0         -1      )       (  0.5000000 )

 cart.    s(19) = (  0.5000000  0.8660254  0.0000000 )    f =(  0.5000000 )
                  ( -0.8660254  0.5000000  0.0000000 )       ( -0.2886757 )
                  (  0.0000000  0.0000000 -1.0000000 )       (  1.3628500 )


      isym = 20     inv. 120 deg rotation - cryst. axis [0,0,-1] 

 cryst.   s(20) = (     1          1          0      )    f =(  0.3333340 )
                  (    -1          0          0      )       ( -0.3333330 )
                  (     0          0         -1      )       (  0.5000000 )

 cart.    s(20) = (  0.5000000 -0.8660254  0.0000000 )    f =(  0.5000005 )
                  (  0.8660254  0.5000000  0.0000000 )       ( -0.2886748 )
                  (  0.0000000  0.0000000 -1.0000000 )       (  1.3628500 )


      isym = 21     inv. 180 deg rotation - cryst. axis [1,-1,0] 

 cryst.   s(21) = (     0          1          0      )    f =(  0.3333330 )
                  (     1          0          0      )       ( -0.3333330 )
                  (     0          0          1      )       ( -0.5000000 )

 cart.    s(21) = ( -0.5000000  0.8660254  0.0000000 )    f =(  0.4999995 )
                  (  0.8660254  0.5000000  0.0000000 )       ( -0.2886748 )
                  (  0.0000000  0.0000000  1.0000000 )       ( -1.3628500 )


      isym = 22     inv. 180 deg rotation - cryst. axis [2,1,0]  

 cryst.   s(22) = (    -1         -1          0      )    f =(  0.3333330 )
                  (     0          1          0      )       ( -0.3333340 )
                  (     0          0          1      )       ( -0.5000000 )

 cart.    s(22) = ( -0.5000000 -0.8660254  0.0000000 )    f =(  0.5000000 )
                  ( -0.8660254  0.5000000  0.0000000 )       ( -0.2886757 )
                  (  0.0000000  0.0000000  1.0000000 )       ( -1.3628500 )


      isym = 23     inv. 180 deg rotation - cryst. axis [0,1,0]  

 cryst.   s(23) = (     1          1          0      )
                  (     0         -1          0      )
                  (     0          0          1      )

 cart.    s(23) = (  0.5000000  0.8660254  0.0000000 )
                  (  0.8660254 -0.5000000  0.0000000 )
                  (  0.0000000  0.0000000  1.0000000 )


      isym = 24     inv. 180 deg rotation - cryst. axis [1,1,0]  

 cryst.   s(24) = (     0         -1          0      )
                  (    -1          0          0      )
                  (     0          0          1      )

 cart.    s(24) = (  0.5000000 -0.8660254  0.0000000 )
                  ( -0.8660254 -0.5000000  0.0000000 )
                  (  0.0000000  0.0000000  1.0000000 )


     point group D_6h(6/mmm)
     there are 12 classes
     the character table:

       E     2C6   2C3   C2    3C2'  3C2'' i     2S3   2S6   s_h   3s_d  3s_v 
A_1g   1.00  1.00  1.00  1.00  1.00  1.00  1.00  1.00  1.00  1.00  1.00  1.00
A_2g   1.00  1.00  1.00  1.00 -1.00 -1.00  1.00  1.00  1.00  1.00 -1.00 -1.00
B_1g   1.00 -1.00  1.00 -1.00  1.00 -1.00  1.00 -1.00  1.00 -1.00  1.00 -1.00
B_2g   1.00 -1.00  1.00 -1.00 -1.00  1.00  1.00 -1.00  1.00 -1.00 -1.00  1.00
E_1g   2.00  1.00 -1.00 -2.00  0.00  0.00  2.00  1.00 -1.00 -2.00  0.00  0.00
E_2g   2.00 -1.00 -1.00  2.00  0.00  0.00  2.00 -1.00 -1.00  2.00  0.00  0.00
A_1u   1.00  1.00  1.00  1.00  1.00  1.00 -1.00 -1.00 -1.00 -1.00 -1.00 -1.00
A_2u   1.00  1.00  1.00  1.00 -1.00 -1.00 -1.00 -1.00 -1.00 -1.00  1.00  1.00
B_1u   1.00 -1.00  1.00 -1.00  1.00 -1.00 -1.00  1.00 -1.00  1.00 -1.00  1.00
B_2u   1.00 -1.00  1.00 -1.00 -1.00  1.00 -1.00  1.00 -1.00  1.00  1.00 -1.00
E_1u   2.00  1.00 -1.00 -2.00  0.00  0.00 -2.00 -1.00  1.00  2.00  0.00  0.00
E_2u   2.00 -1.00 -1.00  2.00  0.00  0.00 -2.00  1.00  1.00 -2.00  0.00  0.00

     the symmetry operations in each class and the name of the first element:

     E        1
          identity                                               
     2C6      5    6
           60 deg rotation - cryst. axis [0,0,1]                 
     2C3      7    8
          120 deg rotation - cryst. axis [0,0,1]                 
     C2       2
          180 deg rotation - cart. axis [0,0,1]                  
     3C2'     4   12   11
          180 deg rotation - cart. axis [1,0,0]                  
     3C2''    3    9   10
          180 deg rotation - cart. axis [0,1,0]                  
     i       13
          inversion                                              
     2S3     17   18
          inv.  60 deg rotation - cryst. axis [0,0,1]            
     2S6     19   20
          inv. 120 deg rotation - cryst. axis [0,0,1]            
     s_h     14
          inv. 180 deg rotation - cart. axis [0,0,1]             
     3s_d    16   24   23
          inv. 180 deg rotation - cart. axis [1,0,0]             
     3s_v    15   21   22
          inv. 180 deg rotation - cart. axis [0,1,0]             

   Cartesian axes

     site n.     atom                  positions (alat units)
         1           B   tau(   1) = (   0.0000000   0.0000000   0.0000000  )
         2           N   tau(   2) = (   0.5000005   0.2886748   0.0000000  )
         3           N   tau(   3) = (   0.0000000   0.0000000   1.3628500  )
         4           B   tau(   4) = (   0.5000005   0.2886748   1.3628500  )

   Crystallographic axes

     site n.     atom                  positions (cryst. coord.)
         1           B   tau(   1) = (  0.0000000  0.0000000  0.0000000  )
         2           N   tau(   2) = (  0.6666670  0.3333330  0.0000000  )
         3           N   tau(   3) = (  0.0000000  0.0000000  0.5000000  )
         4           B   tau(   4) = (  0.6666670  0.3333330  0.5000000  )

     number of k points=    90  Marzari-Vanderbilt smearing, width (Ry)=  0.0050
                       cart. coord. in units 2pi/alat
        k(    1) = (   0.0000000   0.0000000   0.0000000), wk =   0.0019531
        k(    2) = (   0.0000000   0.0000000   0.0917196), wk =   0.0039062
        k(    3) = (   0.0000000   0.0000000  -0.1834391), wk =   0.0019531
        k(    4) = (   0.0000000   0.0721688   0.0000000), wk =   0.0117188
        k(    5) = (   0.0000000   0.0721688   0.0917196), wk =   0.0234375
        k(    6) = (   0.0000000   0.0721688  -0.1834391), wk =   0.0117188
        k(    7) = (   0.0000000   0.1443376   0.0000000), wk =   0.0117188
        k(    8) = (   0.0000000   0.1443376   0.0917196), wk =   0.0234375
        k(    9) = (   0.0000000   0.1443376  -0.1834391), wk =   0.0117188
        k(   10) = (   0.0000000   0.2165064   0.0000000), wk =   0.0117188
        k(   11) = (   0.0000000   0.2165064   0.0917196), wk =   0.0234375
        k(   12) = (   0.0000000   0.2165064  -0.1834391), wk =   0.0117188
        k(   13) = (   0.0000000   0.2886751   0.0000000), wk =   0.0117188
        k(   14) = (   0.0000000   0.2886751   0.0917196), wk =   0.0234375
        k(   15) = (   0.0000000   0.2886751  -0.1834391), wk =   0.0117188
        k(   16) = (   0.0000000   0.3608439   0.0000000), wk =   0.0117188
        k(   17) = (   0.0000000   0.3608439   0.0917196), wk =   0.0234375
        k(   18) = (   0.0000000   0.3608439  -0.1834391), wk =   0.0117188
        k(   19) = (   0.0000000   0.4330127   0.0000000), wk =   0.0117188
        k(   20) = (   0.0000000   0.4330127   0.0917196), wk =   0.0234375
        k(   21) = (   0.0000000   0.4330127  -0.1834391), wk =   0.0117188
        k(   22) = (   0.0000000   0.5051815   0.0000000), wk =   0.0117188
        k(   23) = (   0.0000000   0.5051815   0.0917196), wk =   0.0234375
        k(   24) = (   0.0000000   0.5051815  -0.1834391), wk =   0.0117188
        k(   25) = (   0.0000000  -0.5773503   0.0000000), wk =   0.0058594
        k(   26) = (   0.0000000  -0.5773503   0.0917196), wk =   0.0117188
        k(   27) = (   0.0000000  -0.5773503  -0.1834391), wk =   0.0058594
        k(   28) = (   0.0625000   0.1082532   0.0000000), wk =   0.0117188
        k(   29) = (   0.0625000   0.1082532   0.0917196), wk =   0.0234375
        k(   30) = (   0.0625000   0.1082532  -0.1834391), wk =   0.0117188
        k(   31) = (   0.0625000   0.1804220   0.0000000), wk =   0.0234375
        k(   32) = (   0.0625000   0.1804220   0.0917196), wk =   0.0468750
        k(   33) = (   0.0625000   0.1804220  -0.1834391), wk =   0.0234375
        k(   34) = (   0.0625000   0.2525907   0.0000000), wk =   0.0234375
        k(   35) = (   0.0625000   0.2525907   0.0917196), wk =   0.0468750
        k(   36) = (   0.0625000   0.2525907  -0.1834391), wk =   0.0234375
        k(   37) = (   0.0625000   0.3247595   0.0000000), wk =   0.0234375
        k(   38) = (   0.0625000   0.3247595   0.0917196), wk =   0.0468750
        k(   39) = (   0.0625000   0.3247595  -0.1834391), wk =   0.0234375
        k(   40) = (   0.0625000   0.3969283   0.0000000), wk =   0.0234375
        k(   41) = (   0.0625000   0.3969283   0.0917196), wk =   0.0468750
        k(   42) = (   0.0625000   0.3969283  -0.1834391), wk =   0.0234375
        k(   43) = (   0.0625000   0.4690971   0.0000000), wk =   0.0234375
        k(   44) = (   0.0625000   0.4690971   0.0917196), wk =   0.0468750
        k(   45) = (   0.0625000   0.4690971  -0.1834391), wk =   0.0234375
        k(   46) = (   0.0625000   0.5412659   0.0000000), wk =   0.0234375
        k(   47) = (   0.0625000   0.5412659   0.0917196), wk =   0.0468750
        k(   48) = (   0.0625000   0.5412659  -0.1834391), wk =   0.0234375
        k(   49) = (   0.1250000   0.2165064   0.0000000), wk =   0.0117188
        k(   50) = (   0.1250000   0.2165064   0.0917196), wk =   0.0234375
        k(   51) = (   0.1250000   0.2165064  -0.1834391), wk =   0.0117188
        k(   52) = (   0.1250000   0.2886751   0.0000000), wk =   0.0234375
        k(   53) = (   0.1250000   0.2886751   0.0917196), wk =   0.0468750
        k(   54) = (   0.1250000   0.2886751  -0.1834391), wk =   0.0234375
        k(   55) = (   0.1250000   0.3608439   0.0000000), wk =   0.0234375
        k(   56) = (   0.1250000   0.3608439   0.0917196), wk =   0.0468750
        k(   57) = (   0.1250000   0.3608439  -0.1834391), wk =   0.0234375
        k(   58) = (   0.1250000   0.4330127   0.0000000), wk =   0.0234375
        k(   59) = (   0.1250000   0.4330127   0.0917196), wk =   0.0468750
        k(   60) = (   0.1250000   0.4330127  -0.1834391), wk =   0.0234375
        k(   61) = (   0.1250000   0.5051815   0.0000000), wk =   0.0234375
        k(   62) = (   0.1250000   0.5051815   0.0917196), wk =   0.0468750
        k(   63) = (   0.1250000   0.5051815  -0.1834391), wk =   0.0234375
        k(   64) = (   0.1250000   0.5773503   0.0000000), wk =   0.0117188
        k(   65) = (   0.1250000   0.5773503   0.0917196), wk =   0.0234375
        k(   66) = (   0.1250000   0.5773503  -0.1834391), wk =   0.0117188
        k(   67) = (   0.1875000   0.3247595   0.0000000), wk =   0.0117188
        k(   68) = (   0.1875000   0.3247595   0.0917196), wk =   0.0234375
        k(   69) = (   0.1875000   0.3247595  -0.1834391), wk =   0.0117188
        k(   70) = (   0.1875000   0.3969283   0.0000000), wk =   0.0234375
        k(   71) = (   0.1875000   0.3969283   0.0917196), wk =   0.0468750
        k(   72) = (   0.1875000   0.3969283  -0.1834391), wk =   0.0234375
        k(   73) = (   0.1875000   0.4690971   0.0000000), wk =   0.0234375
        k(   74) = (   0.1875000   0.4690971   0.0917196), wk =   0.0468750
        k(   75) = (   0.1875000   0.4690971  -0.1834391), wk =   0.0234375
        k(   76) = (   0.1875000   0.5412659   0.0000000), wk =   0.0234375
        k(   77) = (   0.1875000   0.5412659   0.0917196), wk =   0.0468750
        k(   78) = (   0.1875000   0.5412659  -0.1834391), wk =   0.0234375
        k(   79) = (   0.2500000   0.4330127   0.0000000), wk =   0.0117188
        k(   80) = (   0.2500000   0.4330127   0.0917196), wk =   0.0234375
        k(   81) = (   0.2500000   0.4330127  -0.1834391), wk =   0.0117188
        k(   82) = (   0.2500000   0.5051815   0.0000000), wk =   0.0234375
        k(   83) = (   0.2500000   0.5051815   0.0917196), wk =   0.0468750
        k(   84) = (   0.2500000   0.5051815  -0.1834391), wk =   0.0234375
        k(   85) = (   0.2500000   0.5773503   0.0000000), wk =   0.0117188
        k(   86) = (   0.2500000   0.5773503   0.0917196), wk =   0.0234375
        k(   87) = (   0.2500000   0.5773503  -0.1834391), wk =   0.0117188
        k(   88) = (   0.3125000   0.5412659   0.0000000), wk =   0.0117188
        k(   89) = (   0.3125000   0.5412659   0.0917196), wk =   0.0234375
        k(   90) = (   0.3125000   0.5412659  -0.1834391), wk =   0.0117188

                       cryst. coord.
        k(    1) = (   0.0000000   0.0000000   0.0000000), wk =   0.0019531
        k(    2) = (   0.0000000   0.0000000   0.2500000), wk =   0.0039062
        k(    3) = (   0.0000000   0.0000000  -0.5000000), wk =   0.0019531
        k(    4) = (   0.0000000   0.0625000   0.0000000), wk =   0.0117188
        k(    5) = (   0.0000000   0.0625000   0.2500000), wk =   0.0234375
        k(    6) = (   0.0000000   0.0625000  -0.5000000), wk =   0.0117188
        k(    7) = (   0.0000000   0.1250000   0.0000000), wk =   0.0117188
        k(    8) = (   0.0000000   0.1250000   0.2500000), wk =   0.0234375
        k(    9) = (   0.0000000   0.1250000  -0.5000000), wk =   0.0117188
        k(   10) = (   0.0000000   0.1875000   0.0000000), wk =   0.0117188
        k(   11) = (   0.0000000   0.1875000   0.2500000), wk =   0.0234375
        k(   12) = (   0.0000000   0.1875000  -0.5000000), wk =   0.0117188
        k(   13) = (   0.0000000   0.2500000   0.0000000), wk =   0.0117188
        k(   14) = (   0.0000000   0.2500000   0.2500000), wk =   0.0234375
        k(   15) = (   0.0000000   0.2500000  -0.5000000), wk =   0.0117188
        k(   16) = (   0.0000000   0.3125000   0.0000000), wk =   0.0117188
        k(   17) = (   0.0000000   0.3125000   0.2500000), wk =   0.0234375
        k(   18) = (   0.0000000   0.3125000  -0.5000000), wk =   0.0117188
        k(   19) = (   0.0000000   0.3750000   0.0000000), wk =   0.0117188
        k(   20) = (   0.0000000   0.3750000   0.2500000), wk =   0.0234375
        k(   21) = (   0.0000000   0.3750000  -0.5000000), wk =   0.0117188
        k(   22) = (   0.0000000   0.4375000   0.0000000), wk =   0.0117188
        k(   23) = (   0.0000000   0.4375000   0.2500000), wk =   0.0234375
        k(   24) = (   0.0000000   0.4375000  -0.5000000), wk =   0.0117188
        k(   25) = (   0.0000000  -0.5000000   0.0000000), wk =   0.0058594
        k(   26) = (   0.0000000  -0.5000000   0.2500000), wk =   0.0117188
        k(   27) = (   0.0000000  -0.5000000  -0.5000000), wk =   0.0058594
        k(   28) = (   0.0625000   0.0625000   0.0000000), wk =   0.0117188
        k(   29) = (   0.0625000   0.0625000   0.2500000), wk =   0.0234375
        k(   30) = (   0.0625000   0.0625000  -0.5000000), wk =   0.0117188
        k(   31) = (   0.0625000   0.1250000   0.0000000), wk =   0.0234375
        k(   32) = (   0.0625000   0.1250000   0.2500000), wk =   0.0468750
        k(   33) = (   0.0625000   0.1250000  -0.5000000), wk =   0.0234375
        k(   34) = (   0.0625000   0.1875000   0.0000000), wk =   0.0234375
        k(   35) = (   0.0625000   0.1875000   0.2500000), wk =   0.0468750
        k(   36) = (   0.0625000   0.1875000  -0.5000000), wk =   0.0234375
        k(   37) = (   0.0625000   0.2500000   0.0000000), wk =   0.0234375
        k(   38) = (   0.0625000   0.2500000   0.2500000), wk =   0.0468750
        k(   39) = (   0.0625000   0.2500000  -0.5000000), wk =   0.0234375
        k(   40) = (   0.0625000   0.3125000   0.0000000), wk =   0.0234375
        k(   41) = (   0.0625000   0.3125000   0.2500000), wk =   0.0468750
        k(   42) = (   0.0625000   0.3125000  -0.5000000), wk =   0.0234375
        k(   43) = (   0.0625000   0.3750000   0.0000000), wk =   0.0234375
        k(   44) = (   0.0625000   0.3750000   0.2500000), wk =   0.0468750
        k(   45) = (   0.0625000   0.3750000  -0.5000000), wk =   0.0234375
        k(   46) = (   0.0625000   0.4375000   0.0000000), wk =   0.0234375
        k(   47) = (   0.0625000   0.4375000   0.2500000), wk =   0.0468750
        k(   48) = (   0.0625000   0.4375000  -0.5000000), wk =   0.0234375
        k(   49) = (   0.1250000   0.1250000   0.0000000), wk =   0.0117188
        k(   50) = (   0.1250000   0.1250000   0.2500000), wk =   0.0234375
        k(   51) = (   0.1250000   0.1250000  -0.5000000), wk =   0.0117188
        k(   52) = (   0.1250000   0.1875000   0.0000000), wk =   0.0234375
        k(   53) = (   0.1250000   0.1875000   0.2500000), wk =   0.0468750
        k(   54) = (   0.1250000   0.1875000  -0.5000000), wk =   0.0234375
        k(   55) = (   0.1250000   0.2500000   0.0000000), wk =   0.0234375
        k(   56) = (   0.1250000   0.2500000   0.2500000), wk =   0.0468750
        k(   57) = (   0.1250000   0.2500000  -0.5000000), wk =   0.0234375
        k(   58) = (   0.1250000   0.3125000   0.0000000), wk =   0.0234375
        k(   59) = (   0.1250000   0.3125000   0.2500000), wk =   0.0468750
        k(   60) = (   0.1250000   0.3125000  -0.5000000), wk =   0.0234375
        k(   61) = (   0.1250000   0.3750000   0.0000000), wk =   0.0234375
        k(   62) = (   0.1250000   0.3750000   0.2500000), wk =   0.0468750
        k(   63) = (   0.1250000   0.3750000  -0.5000000), wk =   0.0234375
        k(   64) = (   0.1250000   0.4375000   0.0000000), wk =   0.0117188
        k(   65) = (   0.1250000   0.4375000   0.2500000), wk =   0.0234375
        k(   66) = (   0.1250000   0.4375000  -0.5000000), wk =   0.0117188
        k(   67) = (   0.1875000   0.1875000   0.0000000), wk =   0.0117188
        k(   68) = (   0.1875000   0.1875000   0.2500000), wk =   0.0234375
        k(   69) = (   0.1875000   0.1875000  -0.5000000), wk =   0.0117188
        k(   70) = (   0.1875000   0.2500000   0.0000000), wk =   0.0234375
        k(   71) = (   0.1875000   0.2500000   0.2500000), wk =   0.0468750
        k(   72) = (   0.1875000   0.2500000  -0.5000000), wk =   0.0234375
        k(   73) = (   0.1875000   0.3125000   0.0000000), wk =   0.0234375
        k(   74) = (   0.1875000   0.3125000   0.2500000), wk =   0.0468750
        k(   75) = (   0.1875000   0.3125000  -0.5000000), wk =   0.0234375
        k(   76) = (   0.1875000   0.3750000   0.0000000), wk =   0.0234375
        k(   77) = (   0.1875000   0.3750000   0.2500000), wk =   0.0468750
        k(   78) = (   0.1875000   0.3750000  -0.5000000), wk =   0.0234375
        k(   79) = (   0.2500000   0.2500000   0.0000000), wk =   0.0117188
        k(   80) = (   0.2500000   0.2500000   0.2500000), wk =   0.0234375
        k(   81) = (   0.2500000   0.2500000  -0.5000000), wk =   0.0117188
        k(   82) = (   0.2500000   0.3125000   0.0000000), wk =   0.0234375
        k(   83) = (   0.2500000   0.3125000   0.2500000), wk =   0.0468750
        k(   84) = (   0.2500000   0.3125000  -0.5000000), wk =   0.0234375
        k(   85) = (   0.2500000   0.3750000   0.0000000), wk =   0.0117188
        k(   86) = (   0.2500000   0.3750000   0.2500000), wk =   0.0234375
        k(   87) = (   0.2500000   0.3750000  -0.5000000), wk =   0.0117188
        k(   88) = (   0.3125000   0.3125000   0.0000000), wk =   0.0117188
        k(   89) = (   0.3125000   0.3125000   0.2500000), wk =   0.0234375
        k(   90) = (   0.3125000   0.3125000  -0.5000000), wk =   0.0117188

     Dense  grid:    56215 G-vectors     FFT dimensions: (  36,  36, 100)

     Dynamical RAM for                 wfc:       0.16 MB

     Dynamical RAM for     wfc (w. buffer):      14.65 MB

     Dynamical RAM for           str. fact:       0.21 MB

     Dynamical RAM for           local pot:       0.00 MB

     Dynamical RAM for          nlocal pot:       0.43 MB

     Dynamical RAM for                qrad:       2.17 MB

     Dynamical RAM for          rho,v,vnew:       0.71 MB

     Dynamical RAM for               rhoin:       0.24 MB

     Dynamical RAM for            rho*nmix:       1.72 MB

     Dynamical RAM for           G-vectors:       0.46 MB

     Dynamical RAM for          h,s,v(r/c):       0.03 MB

     Dynamical RAM for          <psi|beta>:       0.01 MB

     Dynamical RAM for                 psi:       0.32 MB

     Dynamical RAM for                hpsi:       0.32 MB

     Dynamical RAM for      wfcinit/wfcrot:       0.44 MB

     Estimated static dynamical RAM per process >      19.82 MB

     Estimated max dynamical RAM per process >      22.21 MB

     Estimated total dynamical RAM >     177.71 MB

     Initial potential from superposition of free atoms

     starting charge      15.9995, renormalised to      16.0000


     %%%%%%%%%%%%%%%%%%%%%%%%%%%%%%%%%%%%%%%%%%%%%%%%%%%%%%%%%%%%%%%%%%%%%%%%
     %                                                                      %
     % You are using vdW-DF, which was implemented by the Thonhauser group. %
     % Please cite the following two papers that made this development      %
     % possible and the two reviews that describe the various versions:     %
     %                                                                      %
     %   T. Thonhauser et al., PRL 115, 136402 (2015).                      %
     %   T. Thonhauser et al., PRB 76, 125112 (2007).                       %
     %   K. Berland et al., Rep. Prog. Phys. 78, 066501 (2015).             %
     %   D.C. Langreth et al., J. Phys.: Condens. Matter 21, 084203 (2009). %
     %                                                                      %
     % If you are calculating stress with vdW-DF, please also cite:         %
     %                                                                      %
     %   R. Sabatini et al., J. Phys.: Condens. Matter 24, 424209 (2012).   %
     %                                                                      %
     %%%%%%%%%%%%%%%%%%%%%%%%%%%%%%%%%%%%%%%%%%%%%%%%%%%%%%%%%%%%%%%%%%%%%%%%

     %%%%%%%%%%%%%%%%%%%%%%%%%%%%%%%%%%%%%%%%%%%%%%%%%%%%%%%%%%%%%%%%%%%%%%%%
     %                                                                      %
     %  vdW-DF NEWS:                                                        %
     %                                                                      %
     %  * vdW-DF3 is now available. DOI: 10.1021/acs.jctc.0c00471           %
     %    use with input_dft = 'vdW-DF3-opt1' or 'vdW-DF3-opt2'             %
     %                                                                      %
     %  * Unscreened and range-separated hybrid vdW-DF-cx functionals       %
     %    DOI: 10.1063/1.4986522 and 10.1088/1361-648X/ac2ad2               %
     %    use with input_dft = 'vdW-DF-cx0'    and 'vdW-DF-ahcx'            %
     %  * Unscreened and range-separated hybrid vdW-DF2-b86r functionals    %
     %    DOI: 10.1063/1.4986522 and DOI: 10.1103/PhysRevX.12.041003        %
     %    use with input_dft = 'vdW-DF2-br0' and 'vdW-DF2-ahbr'             %
     %                                                                      %
     %%%%%%%%%%%%%%%%%%%%%%%%%%%%%%%%%%%%%%%%%%%%%%%%%%%%%%%%%%%%%%%%%%%%%%%%


     Carrying out vdW-DF run using the following parameters:
     Nqs    =  20  Npoints =  1024  r_max =  100.000
     q_mesh =  0.00001000  0.04494208  0.09755937  0.15916263
               0.23128650  0.31572767  0.41458969  0.53033537
               0.66584808  0.82450364  1.01025438  1.22772762
               1.48234092  1.78043706  2.12944203  2.53805004
               3.01644009  3.57652955  4.23227104  5.00000000


     -----------------------------------------------
     Non-local corr. energy    =       0.15809005 Ry
     -----------------------------------------------

     Starting wfcs are   16 randomized atomic wfcs

     total cpu time spent up to now is       10.2 secs

     Self-consistent Calculation

     iteration #  1     ecut=   140.00 Ry     beta= 0.70
     Davidson diagonalization with overlap

---- Real-time Memory Report at c_bands before calling an iterative solver
             0 MiB given to the printing process from OS
             0 MiB allocation reported by mallinfo(arena+hblkhd)
             0 MiB available memory on the node where the printing process lives
------------------
     ethr =  1.00E-02,  avg # of iterations =  3.6


     -----------------------------------------------
     Non-local corr. energy    =       0.19339336 Ry
     -----------------------------------------------


     total cpu time spent up to now is       12.8 secs

     total energy              =     -53.45968124 Ry
     estimated scf accuracy    <       0.75104092 Ry

     iteration #  2     ecut=   140.00 Ry     beta= 0.70
     Davidson diagonalization with overlap

---- Real-time Memory Report at c_bands before calling an iterative solver
             0 MiB given to the printing process from OS
             0 MiB allocation reported by mallinfo(arena+hblkhd)
             0 MiB available memory on the node where the printing process lives
------------------
     ethr =  4.69E-03,  avg # of iterations =  2.0


     -----------------------------------------------
     Non-local corr. energy    =       0.18655272 Ry
     -----------------------------------------------


     total cpu time spent up to now is       15.0 secs

     total energy              =     -53.65808645 Ry
     estimated scf accuracy    <       0.31612684 Ry

     iteration #  3     ecut=   140.00 Ry     beta= 0.70
     Davidson diagonalization with overlap

---- Real-time Memory Report at c_bands before calling an iterative solver
             0 MiB given to the printing process from OS
             0 MiB allocation reported by mallinfo(arena+hblkhd)
             0 MiB available memory on the node where the printing process lives
------------------
     ethr =  1.98E-03,  avg # of iterations =  1.5


     -----------------------------------------------
     Non-local corr. energy    =       0.18889988 Ry
     -----------------------------------------------


     total cpu time spent up to now is       16.7 secs

     total energy              =     -53.70894272 Ry
     estimated scf accuracy    <       0.00476152 Ry

     iteration #  4     ecut=   140.00 Ry     beta= 0.70
     Davidson diagonalization with overlap

---- Real-time Memory Report at c_bands before calling an iterative solver
             0 MiB given to the printing process from OS
             0 MiB allocation reported by mallinfo(arena+hblkhd)
             0 MiB available memory on the node where the printing process lives
------------------
     c_bands:  1 eigenvalues not converged
     ethr =  2.98E-05,  avg # of iterations =  9.2


     -----------------------------------------------
     Non-local corr. energy    =       0.18904503 Ry
     -----------------------------------------------


     total cpu time spent up to now is       20.8 secs

     total energy              =     -53.71251744 Ry
     estimated scf accuracy    <       0.00361035 Ry

     iteration #  5     ecut=   140.00 Ry     beta= 0.70
     Davidson diagonalization with overlap

---- Real-time Memory Report at c_bands before calling an iterative solver
             0 MiB given to the printing process from OS
             0 MiB allocation reported by mallinfo(arena+hblkhd)
             0 MiB available memory on the node where the printing process lives
------------------
     ethr =  2.26E-05,  avg # of iterations =  2.0


     -----------------------------------------------
     Non-local corr. energy    =       0.18899795 Ry
     -----------------------------------------------


     total cpu time spent up to now is       22.7 secs

     total energy              =     -53.71310873 Ry
     estimated scf accuracy    <       0.00003762 Ry

     iteration #  6     ecut=   140.00 Ry     beta= 0.70
     Davidson diagonalization with overlap

---- Real-time Memory Report at c_bands before calling an iterative solver
             0 MiB given to the printing process from OS
             0 MiB allocation reported by mallinfo(arena+hblkhd)
             0 MiB available memory on the node where the printing process lives
------------------
     c_bands:  2 eigenvalues not converged
     c_bands:  1 eigenvalues not converged
     c_bands:  1 eigenvalues not converged
     c_bands:  1 eigenvalues not converged
     ethr =  2.35E-07,  avg # of iterations =  7.1


     -----------------------------------------------
     Non-local corr. energy    =       0.18907004 Ry
     -----------------------------------------------


     total cpu time spent up to now is       26.3 secs

     total energy              =     -53.71315270 Ry
     estimated scf accuracy    <       0.00007146 Ry

     iteration #  7     ecut=   140.00 Ry     beta= 0.70
     Davidson diagonalization with overlap

---- Real-time Memory Report at c_bands before calling an iterative solver
             0 MiB given to the printing process from OS
             0 MiB allocation reported by mallinfo(arena+hblkhd)
             0 MiB available memory on the node where the printing process lives
------------------
     c_bands:  1 eigenvalues not converged
     ethr =  2.35E-07,  avg # of iterations =  2.4


     -----------------------------------------------
     Non-local corr. energy    =       0.18905020 Ry
     -----------------------------------------------


     total cpu time spent up to now is       28.5 secs

     End of self-consistent calculation

          k = 0.0000 0.0000 0.0000 (  7003 PWs)   bands (ev):

   -13.3864 -13.1426  -1.8039   0.1122   2.9583   2.9583   2.9864   2.9864
     9.1404  14.0853  15.9691  15.9698

     occupation numbers 
     1.0000   1.0000   1.0000   1.0000   1.0000   1.0000   1.0000   1.0000
     0.0000   0.0000   0.0000   0.0000

          k = 0.0000 0.0000 0.0917 (  7021 PWs)   bands (ev):

   -13.3524 -13.1801  -1.5700  -0.2331   2.9624   2.9624   2.9822   2.9823
     9.7986  13.1665  15.9822  15.9959

     occupation numbers 
     1.0000   1.0000   1.0000   1.0000   1.0000   1.0000   1.0000   1.0000
     0.0000   0.0000   0.0000   0.0000

          k = 0.0000 0.0000-0.1834 (  7032 PWs)   bands (ev):

   -13.2679 -13.2679  -0.9539  -0.9539   2.9723   2.9723   2.9723   2.9723
    11.3915  11.3915  16.0168  16.0169

     occupation numbers 
     1.0000   1.0000   1.0000   1.0000   1.0000   1.0000   1.0000   1.0000
     0.0000   0.0000   0.0000   0.0000

          k = 0.0000 0.0722 0.0000 (  6993 PWs)   bands (ev):

   -13.3105 -13.0689  -1.6989   0.2073   2.6423   2.6661   2.8098   2.8399
     9.2817  14.0604  15.8598  15.9928

     occupation numbers 
     1.0000   1.0000   1.0000   1.0000   1.0000   1.0000   1.0000   1.0000
     0.0000   0.0000   0.0000   0.0000

          k = 0.0000 0.0722 0.0917 (  6994 PWs)   bands (ev):

   -13.2767 -13.1059  -1.4663  -0.1364   2.6466   2.6642   2.8142   2.8355
     9.9309  13.2140  15.9053  15.9925

     occupation numbers 
     1.0000   1.0000   1.0000   1.0000   1.0000   1.0000   1.0000   1.0000
     0.0000   0.0000   0.0000   0.0000

          k = 0.0000 0.0722-0.1834 (  7022 PWs)   bands (ev):

   -13.1929 -13.1929  -0.8534  -0.8534   2.6564   2.6564   2.8248   2.8248
    11.4977  11.4977  15.9596  15.9600

     occupation numbers 
     1.0000   1.0000   1.0000   1.0000   1.0000   1.0000   1.0000   1.0000
     0.0000   0.0000   0.0000   0.0000

          k = 0.0000 0.1443 0.0000 (  7011 PWs)   bands (ev):

   -13.0847 -12.8498  -1.3860   0.4893   1.7846   1.8066   2.4162   2.4509
     9.6708  13.9459  15.5808  15.9290

     occupation numbers 
     1.0000   1.0000   1.0000   1.0000   1.0000   1.0000   1.0000   1.0000
     0.0000   0.0000   0.0000   0.0000

          k = 0.0000 0.1443 0.0917 (  7011 PWs)   bands (ev):

   -13.0518 -12.8858  -1.1574   0.1495   1.7908   1.8093   2.4212   2.4458
    10.2928  13.2905  15.6533  15.8771

     occupation numbers 
     1.0000   1.0000   1.0000   1.0000   1.0000   1.0000   1.0000   1.0000
     0.0000   0.0000   0.0000   0.0000

          k = 0.0000 0.1443-0.1834 (  7012 PWs)   bands (ev):

   -12.9703 -12.9703  -0.5554  -0.5554   1.8032   1.8032   2.4335   2.4335
    11.7718  11.7718  15.7733  15.7735

     occupation numbers 
     1.0000   1.0000   1.0000   1.0000   1.0000   1.0000   1.0000   1.0000
     0.0000   0.0000   0.0000   0.0000

          k = 0.0000 0.2165 0.0000 (  7023 PWs)   bands (ev):

   -12.7166 -12.4930  -0.8722   0.5825   0.6127   0.9480   1.8912   1.9309
    10.2540  13.6244  15.0149  15.2657

     occupation numbers 
     1.0000   1.0000   1.0000   1.0000   1.0000   1.0000   1.0000   1.0000
     0.0000   0.0000   0.0000   0.0000

          k = 0.0000 0.2165 0.0917 (  7003 PWs)   bands (ev):

   -12.6852 -12.5272  -0.6536   0.5098   0.5966   0.7237   1.8970   1.9250
    10.8197  13.2247  15.1224  15.3040

     occupation numbers 
     1.0000   1.0000   1.0000   1.0000   1.0000   1.0000   1.0000   1.0000
     0.0000   0.0000   0.0000   0.0000

          k = 0.0000 0.2165-0.1834 (  7006 PWs)   bands (ev):

   -12.6076 -12.6076  -0.0843  -0.0843   0.6277   0.6277   1.9110   1.9110
    12.0989  12.0989  15.3063  15.3063

     occupation numbers 
     1.0000   1.0000   1.0000   1.0000   1.0000   1.0000   1.0000   1.0000
     0.0000   0.0000   0.0000   0.0000

          k = 0.0000 0.2887 0.0000 (  7047 PWs)   bands (ev):

   -12.2214 -12.0147  -0.7711  -0.7270  -0.1721   1.3457   1.3894   1.5621
    10.9981  12.9306  13.6128  14.9654

     occupation numbers 
     1.0000   1.0000   1.0000   1.0000   1.0000   1.0000   1.0000   1.0000
     0.0000   0.0000   0.0000   0.0000

          k = 0.0000 0.2887 0.0917 (  7015 PWs)   bands (ev):

   -12.1923 -12.0462  -0.7756  -0.7392   0.0569   1.2657   1.3520   1.3830
    11.4210  12.7716  13.8425  14.9340

     occupation numbers 
     1.0000   1.0000   1.0000   1.0000   1.0000   1.0000   1.0000   1.0000
     0.0000   0.0000   0.0000   0.0000

          k = 0.0000 0.2887-0.1834 (  7024 PWs)   bands (ev):

   -12.1204 -12.1204  -0.7634  -0.7634   0.6272   0.6272   1.3675   1.3675
    12.2230  12.2230  14.5534  14.5535

     occupation numbers 
     1.0000   1.0000   1.0000   1.0000   1.0000   1.0000   1.0000   1.0000
     0.0000   0.0000   0.0000   0.0000

          k = 0.0000 0.3608 0.0000 (  7012 PWs)   bands (ev):

   -11.6295 -11.4465  -2.1207  -2.0624   0.6849   0.8595   0.9064   2.2888
    11.7039  11.8687  12.3172  14.7113

     occupation numbers 
     1.0000   1.0000   1.0000   1.0000   1.0000   1.0000   1.0000   1.0000
     0.0000   0.0000   0.0000   0.0000

          k = 0.0000 0.3608 0.0917 (  7023 PWs)   bands (ev):

   -11.6036 -11.4742  -2.1153  -2.0736   0.8663   0.8927   0.8994   2.0180
    11.5021  11.9233  12.9755  14.6621

     occupation numbers 
     1.0000   1.0000   1.0000   1.0000   1.0000   1.0000   1.0000   1.0000
     0.0000   0.0000   0.0000   0.0000

          k = 0.0000 0.3608-0.1834 (  7022 PWs)   bands (ev):

   -11.5398 -11.5398  -2.0973  -2.0973   0.8828   0.8828   1.4249   1.4249
    11.6466  11.6466  14.1875  14.1876

     occupation numbers 
     1.0000   1.0000   1.0000   1.0000   1.0000   1.0000   1.0000   1.0000
     0.0000   0.0000   0.0000   0.0000

          k = 0.0000 0.4330 0.0000 (  7034 PWs)   bands (ev):

   -11.0020 -10.8533  -3.3236  -3.2570   0.4835   0.5325   1.6353   3.0393
    10.2555  11.1831  12.7826  14.5210

     occupation numbers 
     1.0000   1.0000   1.0000   1.0000   1.0000   1.0000   1.0000   1.0000
     0.0000   0.0000   0.0000   0.0000

          k = 0.0000 0.4330 0.0917 (  7030 PWs)   bands (ev):

   -10.9808 -10.8757  -3.3161  -3.2688   0.4906   0.5253   1.8221   2.8110
    10.2887  10.9343  13.3604  14.4908

     occupation numbers 
     1.0000   1.0000   1.0000   1.0000   1.0000   1.0000   1.0000   1.0000
     0.0000   0.0000   0.0000   0.0000

          k = 0.0000 0.4330-0.1834 (  7048 PWs)   bands (ev):

   -10.9288 -10.9288  -3.2946  -3.2946   0.5079   0.5079   2.2961   2.2961
    10.5269  10.5269  14.2089  14.2089

     occupation numbers 
     1.0000   1.0000   1.0000   1.0000   1.0000   1.0000   1.0000   1.0000
     0.0000   0.0000   0.0000   0.0000

          k = 0.0000 0.5052 0.0000 (  7006 PWs)   bands (ev):

   -10.4633 -10.3645  -4.2041  -4.1417   0.2476   0.2978   2.5221   3.6302
     9.0875  10.2579  13.5263  14.4039

     occupation numbers 
     1.0000   1.0000   1.0000   1.0000   1.0000   1.0000   1.0000   1.0000
     0.0000   0.0000   0.0000   0.0000

          k = 0.0000 0.5052 0.0917 (  7033 PWs)   bands (ev):

   -10.4490 -10.3792  -4.1971  -4.1529   0.2549   0.2904   2.6792   3.4645
     9.1683   9.9890  13.8337  14.3926

     occupation numbers 
     1.0000   1.0000   1.0000   1.0000   1.0000   1.0000   1.0000   1.0000
     0.0000   0.0000   0.0000   0.0000

          k = 0.0000 0.5052-0.1834 (  7036 PWs)   bands (ev):

   -10.4142 -10.4142  -4.1772  -4.1771   0.2726   0.2726   3.0670   3.0670
     9.4928   9.4928  14.2552  14.2552

     occupation numbers 
     1.0000   1.0000   1.0000   1.0000   1.0000   1.0000   1.0000   1.0000
     0.0000   0.0000   0.0000   0.0000

          k = 0.0000-0.5774 0.0000 (  7032 PWs)   bands (ev):

   -10.2293 -10.1718  -4.5386  -4.4849   0.1673   0.2180   2.9483   3.8366
     8.6198   9.8737  13.8067  14.3644

     occupation numbers 
     1.0000   1.0000   1.0000   1.0000   1.0000   1.0000   1.0000   1.0000
     0.0000   0.0000   0.0000   0.0000

          k = 0.0000-0.5774 0.0917 (  7028 PWs)   bands (ev):

   -10.2208 -10.1801  -4.5330  -4.4950   0.1747   0.2105   3.0827   3.7156
     8.7066   9.5873  13.9962  14.3601

     occupation numbers 
     1.0000   1.0000   1.0000   1.0000   1.0000   1.0000   1.0000   1.0000
     0.0000   0.0000   0.0000   0.0000

          k = 0.0000-0.5774-0.1834 (  7028 PWs)   bands (ev):

   -10.2004 -10.2004  -4.5162  -4.5162   0.1926   0.1926   3.4051   3.4051
     9.0533   9.0533  14.2683  14.2683

     occupation numbers 
     1.0000   1.0000   1.0000   1.0000   1.0000   1.0000   1.0000   1.0000
     0.0000   0.0000   0.0000   0.0000

          k = 0.0625 0.1083 0.0000 (  6989 PWs)   bands (ev):

   -13.1596 -12.9224  -1.4899   0.3958   2.0822   2.0971   2.5164   2.5468
     9.5473  13.9914  15.8831  15.9243

     occupation numbers 
     1.0000   1.0000   1.0000   1.0000   1.0000   1.0000   1.0000   1.0000
     0.0000   0.0000   0.0000   0.0000

          k = 0.0625 0.1083 0.0917 (  7018 PWs)   bands (ev):

   -13.1264 -12.9588  -1.2599   0.0551   2.0866   2.0994   2.5209   2.5423
    10.1787  13.2783  15.9019  15.9468

     occupation numbers 
     1.0000   1.0000   1.0000   1.0000   1.0000   1.0000   1.0000   1.0000
     0.0000   0.0000   0.0000   0.0000

          k = 0.0625 0.1083-0.1834 (  7018 PWs)   bands (ev):

   -13.0441 -13.0441  -0.6541  -0.6541   2.0956   2.0956   2.5315   2.5315
    11.6896  11.6896  15.9386  15.9389

     occupation numbers 
     1.0000   1.0000   1.0000   1.0000   1.0000   1.0000   1.0000   1.0000
     0.0000   0.0000   0.0000   0.0000

          k = 0.0625 0.1804 0.0000 (  7013 PWs)   bands (ev):

   -12.8624 -12.6343  -1.0764   0.7665   1.1008   1.1186   2.0085   2.0441
    10.0367  13.7781  15.4823  15.6928

     occupation numbers 
     1.0000   1.0000   1.0000   1.0000   1.0000   1.0000   1.0000   1.0000
     0.0000   0.0000   0.0000   0.0000

          k = 0.0625 0.1804 0.0917 (  7012 PWs)   bands (ev):

   -12.8304 -12.6692  -0.8528   0.4241   1.1089   1.1316   2.0139   2.0389
    10.6283  13.2920  15.5796  15.7209

     occupation numbers 
     1.0000   1.0000   1.0000   1.0000   1.0000   1.0000   1.0000   1.0000
     0.0000   0.0000   0.0000   0.0000

          k = 0.0625 0.1804-0.1834 (  7012 PWs)   bands (ev):

   -12.7513 -12.7513  -0.2648  -0.2648   1.1245   1.1245   2.0265   2.0265
    12.0007  12.0007  15.7343  15.7343

     occupation numbers 
     1.0000   1.0000   1.0000   1.0000   1.0000   1.0000   1.0000   1.0000
     0.0000   0.0000   0.0000   0.0000

          k = 0.0625 0.2526 0.0000 (  7012 PWs)   bands (ev):

   -12.4300 -12.2159  -0.4687  -0.1381  -0.1061   1.3040   1.4313   1.4729
    10.7096  13.2874  14.1975  15.4201

     occupation numbers 
     1.0000   1.0000   1.0000   1.0000   1.0000   1.0000   1.0000   1.0000
     0.0000   0.0000   0.0000   0.0000

          k = 0.0625 0.2526 0.0917 (  7006 PWs)   bands (ev):

   -12.3999 -12.2485  -0.3020  -0.1239  -0.0753   1.0023   1.4383   1.4677
    11.2112  13.0388  14.3971  15.3892

     occupation numbers 
     1.0000   1.0000   1.0000   1.0000   1.0000   1.0000   1.0000   1.0000
     0.0000   0.0000   0.0000   0.0000

          k = 0.0625 0.2526-0.1834 (  7018 PWs)   bands (ev):

   -12.3255 -12.3255  -0.1626  -0.1626   0.3710   0.3710   1.4531   1.4531
    12.2577  12.2577  14.9998  14.9998

     occupation numbers 
     1.0000   1.0000   1.0000   1.0000   1.0000   1.0000   1.0000   1.0000
     0.0000   0.0000   0.0000   0.0000

          k = 0.0625 0.3248 0.0000 (  7034 PWs)   bands (ev):

   -11.8840 -11.6898  -1.4658  -1.4175   0.3125   0.8879   0.9342   1.9782
    11.5364  12.3562  12.8395  15.1549

     occupation numbers 
     1.0000   1.0000   1.0000   1.0000   1.0000   1.0000   1.0000   1.0000
     0.0000   0.0000   0.0000   0.0000

          k = 0.0625 0.3248 0.0917 (  7019 PWs)   bands (ev):

   -11.8566 -11.7193  -1.4632  -1.4280   0.5264   0.8955   0.9273   1.6958
    11.7007  12.3315  13.2481  15.0879

     occupation numbers 
     1.0000   1.0000   1.0000   1.0000   1.0000   1.0000   1.0000   1.0000
     0.0000   0.0000   0.0000   0.0000

          k = 0.0625 0.3248-0.1834 (  7018 PWs)   bands (ev):

   -11.7890 -11.7890  -1.4493  -1.4493   0.9034   0.9034   1.0863   1.0863
    12.0357  12.0357  14.4434  14.4434

     occupation numbers 
     1.0000   1.0000   1.0000   1.0000   1.0000   1.0000   1.0000   1.0000
     0.0000   0.0000   0.0000   0.0000

          k = 0.0625 0.3969 0.0000 (  7032 PWs)   bands (ev):

   -11.2673 -11.1016  -2.7336  -2.6720   0.4408   0.4904   1.2244   2.7275
    10.9679  11.6789  12.4712  14.9353

     occupation numbers 
     1.0000   1.0000   1.0000   1.0000   1.0000   1.0000   1.0000   1.0000
     0.0000   0.0000   0.0000   0.0000

          k = 0.0625 0.3969 0.0917 (  7024 PWs)   bands (ev):

   -11.2438 -11.1266  -2.7269  -2.6832   0.4474   0.4826   1.4221   2.4786
    10.9349  11.4296  13.2305  14.8846

     occupation numbers 
     1.0000   1.0000   1.0000   1.0000   1.0000   1.0000   1.0000   1.0000
     0.0000   0.0000   0.0000   0.0000

          k = 0.0625 0.3969-0.1834 (  7026 PWs)   bands (ev):

   -11.1859 -11.1859  -2.7073  -2.7073   0.4646   0.4646   1.9253   1.9253
    11.0941  11.0941  14.4238  14.4238

     occupation numbers 
     1.0000   1.0000   1.0000   1.0000   1.0000   1.0000   1.0000   1.0000
     0.0000   0.0000   0.0000   0.0000

          k = 0.0625 0.4691 0.0000 (  7037 PWs)   bands (ev):

   -10.6677 -10.5436  -3.7837  -3.7182   0.1264   0.1780   2.1692   3.4223
     9.6320  10.6446  13.3907  14.7812

     occupation numbers 
     1.0000   1.0000   1.0000   1.0000   1.0000   1.0000   1.0000   1.0000
     0.0000   0.0000   0.0000   0.0000

          k = 0.0625 0.4691 0.0917 (  7037 PWs)   bands (ev):

   -10.6499 -10.5621  -3.7761  -3.7297   0.1336   0.1701   2.3412   3.2265
     9.6919  10.4028  13.8502  14.7576

     occupation numbers 
     1.0000   1.0000   1.0000   1.0000   1.0000   1.0000   1.0000   1.0000
     0.0000   0.0000   0.0000   0.0000

          k = 0.0625 0.4691-0.1834 (  7022 PWs)   bands (ev):

   -10.6063 -10.6063  -3.7550  -3.7550   0.1516   0.1516   2.7717   2.7717
     9.9672   9.9672  14.5310  14.5310

     occupation numbers 
     1.0000   1.0000   1.0000   1.0000   1.0000   1.0000   1.0000   1.0000
     0.0000   0.0000   0.0000   0.0000

          k = 0.0625 0.5413 0.0000 (  7035 PWs)   bands (ev):

   -10.2540 -10.1836  -4.4096  -4.3519  -0.0353   0.0173   2.8935   3.8323
     8.7787   9.9562  14.0009  14.7019

     occupation numbers 
     1.0000   1.0000   1.0000   1.0000   1.0000   1.0000   1.0000   1.0000
     0.0000   0.0000   0.0000   0.0000

          k = 0.0625 0.5413 0.0917 (  7036 PWs)   bands (ev):

   -10.2437 -10.1939  -4.4033  -4.3624  -0.0279   0.0094   3.0335   3.7014
     8.8584   9.6866  14.2408  14.6943

     occupation numbers 
     1.0000   1.0000   1.0000   1.0000   1.0000   1.0000   1.0000   1.0000
     0.0000   0.0000   0.0000   0.0000

          k = 0.0625 0.5413-0.1834 (  7028 PWs)   bands (ev):

   -10.2188 -10.2188  -4.3850  -4.3850  -0.0095  -0.0095   3.3713   3.3713
     9.1837   9.1837  14.5812  14.5812

     occupation numbers 
     1.0000   1.0000   1.0000   1.0000   1.0000   1.0000   1.0000   1.0000
     0.0000   0.0000   0.0000   0.0000

          k = 0.1250 0.2165 0.0000 (  7015 PWs)   bands (ev):

   -12.5005 -12.2839  -0.5684   0.1773   0.1851   1.2167   1.3644   1.4026
    10.6228  13.4071  14.4228  16.1218

     occupation numbers 
     1.0000   1.0000   1.0000   1.0000   1.0000   1.0000   1.0000   1.0000
     0.0000   0.0000   0.0000   0.0000

          k = 0.1250 0.2165 0.0917 (  7014 PWs)   bands (ev):

   -12.4700 -12.3169  -0.3635   0.1691   0.1961   0.9162   1.3728   1.3974
    11.1458  13.1287  14.6240  16.1850

     occupation numbers 
     1.0000   1.0000   1.0000   1.0000   1.0000   1.0000   1.0000   1.0000
     0.0000   0.0000   0.0000   0.0000

          k = 0.1250 0.2165-0.1834 (  7008 PWs)   bands (ev):

   -12.3948 -12.3948   0.0632   0.0632   0.3529   0.3529   1.3852   1.3852
    12.2650  12.2650  15.2952  15.2953

     occupation numbers 
     1.0000   1.0000   1.0000   1.0000   1.0000   1.0000   1.0000   1.0000
     0.0000   0.0000   0.0000   0.0000

          k = 0.1250 0.2887 0.0000 (  7029 PWs)   bands (ev):

   -12.0147 -11.8151  -0.9383  -0.9148   0.1228   0.6908   0.7347   1.8179
    11.3968  12.7434  13.1586  16.1134

     occupation numbers 
     1.0000   1.0000   1.0000   1.0000   1.0000   1.0000   1.0000   1.0000
     0.0000   0.0000   0.0000   0.0000

          k = 0.1250 0.2887 0.0917 (  7017 PWs)   bands (ev):

   -11.9866 -11.8455  -0.9413  -0.9229   0.3401   0.6960   0.7308   1.5317
    11.7060  12.6103  13.5526  15.9927

     occupation numbers 
     1.0000   1.0000   1.0000   1.0000   1.0000   1.0000   1.0000   1.0000
     0.0000   0.0000   0.0000   0.0000

          k = 0.1250 0.2887-0.1834 (  7010 PWs)   bands (ev):

   -11.9171 -11.9171  -0.9368  -0.9368   0.6964   0.6964   0.9199   0.9199
    12.2304  12.2304  14.7909  14.7909

     occupation numbers 
     1.0000   1.0000   1.0000   1.0000   1.0000   1.0000   1.0000   1.0000
     0.0000   0.0000   0.0000   0.0000

          k = 0.1250 0.3608 0.0000 (  7033 PWs)   bands (ev):

   -11.4363 -11.2606  -2.1275  -2.0827   0.1193   0.1690   0.9674   2.5265
    11.6156  12.0011  12.3261  15.9202

     occupation numbers 
     1.0000   1.0000   1.0000   1.0000   1.0000   1.0000   1.0000   1.0000
     0.0000   0.0000   0.0000   0.0000

          k = 0.1250 0.3608 0.0917 (  7028 PWs)   bands (ev):

   -11.4113 -11.2872  -2.1235  -2.0916   0.1250   0.1602   1.1725   2.2667
    11.4606  11.7789  13.2625  15.8054

     occupation numbers 
     1.0000   1.0000   1.0000   1.0000   1.0000   1.0000   1.0000   1.0000
     0.0000   0.0000   0.0000   0.0000

          k = 0.1250 0.3608-0.1834 (  7028 PWs)   bands (ev):

   -11.3501 -11.3501  -2.1099  -2.1099   0.1413   0.1413   1.6928   1.6928
    11.5329  11.5329  14.8273  14.8273

     occupation numbers 
     1.0000   1.0000   1.0000   1.0000   1.0000   1.0000   1.0000   1.0000
     0.0000   0.0000   0.0000   0.0000

          k = 0.1250 0.4330 0.0000 (  7045 PWs)   bands (ev):

   -10.8267 -10.6853  -3.2287  -3.1692  -0.3036  -0.2496   1.9019   3.2527
    10.2730  10.9952  13.3567  15.7397

     occupation numbers 
     1.0000   1.0000   1.0000   1.0000   1.0000   1.0000   1.0000   1.0000
     0.0000   0.0000   0.0000   0.0000

          k = 0.1250 0.4330 0.0917 (  7037 PWs)   bands (ev):

   -10.8065 -10.7065  -3.2219  -3.1797  -0.2967  -0.2584   2.0844   3.0367
    10.2866  10.8029  13.9780  15.6768

     occupation numbers 
     1.0000   1.0000   1.0000   1.0000   1.0000   1.0000   1.0000   1.0000
     0.0000   0.0000   0.0000   0.0000

          k = 0.1250 0.4330-0.1834 (  7038 PWs)   bands (ev):

   -10.7570 -10.7570  -3.2027  -3.2027  -0.2784  -0.2784   2.5439   2.5439
    10.4696  10.4696  15.1422  15.1422

     occupation numbers 
     1.0000   1.0000   1.0000   1.0000   1.0000   1.0000   1.0000   1.0000
     0.0000   0.0000   0.0000   0.0000

          k = 0.1250 0.5052 0.0000 (  7053 PWs)   bands (ev):

   -10.3082 -10.2154  -4.0490  -3.9863  -0.5619  -0.5054   2.7733   3.8146
     9.1957  10.1517  14.3339  15.6197

     occupation numbers 
     1.0000   1.0000   1.0000   1.0000   1.0000   1.0000   1.0000   1.0000
     0.0000   0.0000   0.0000   0.0000

          k = 0.1250 0.5052 0.0917 (  7043 PWs)   bands (ev):

   -10.2948 -10.2291  -4.0417  -3.9973  -0.5544  -0.5144   2.9243   3.6632
     9.2517   9.9281  14.7352  15.5963

     occupation numbers 
     1.0000   1.0000   1.0000   1.0000   1.0000   1.0000   1.0000   1.0000
     0.0000   0.0000   0.0000   0.0000

          k = 0.1250 0.5052-0.1834 (  7030 PWs)   bands (ev):

   -10.2620 -10.2620  -4.0214  -4.0214  -0.5351  -0.5351   3.2931   3.2931
     9.5119   9.5119  15.3729  15.3730

     occupation numbers 
     1.0000   1.0000   1.0000   1.0000   1.0000   1.0000   1.0000   1.0000
     0.0000   0.0000   0.0000   0.0000

          k = 0.1250 0.5774 0.0000 (  7053 PWs)   bands (ev):

   -10.0850 -10.0315  -4.3630  -4.3033  -0.6487  -0.5914   3.1948   4.0024
     8.7659   9.7966  14.8058  15.5780

     occupation numbers 
     1.0000   1.0000   1.0000   1.0000   1.0000   1.0000   1.0000   1.0000
     0.0000   0.0000   0.0000   0.0000

          k = 0.1250 0.5774 0.0917 (  7044 PWs)   bands (ev):

   -10.0770 -10.0392  -4.3562  -4.3140  -0.6410  -0.6005   3.3215   3.8977
     8.8264   9.5549  15.0615  15.5683

     occupation numbers 
     1.0000   1.0000   1.0000   1.0000   1.0000   1.0000   1.0000   1.0000
     0.0000   0.0000   0.0000   0.0000

          k = 0.1250 0.5774-0.1834 (  7040 PWs)   bands (ev):

   -10.0580 -10.0580  -4.3371  -4.3371  -0.6214  -0.6214   3.6199   3.6199
     9.1045   9.1045  15.4427  15.4428

     occupation numbers 
     1.0000   1.0000   1.0000   1.0000   1.0000   1.0000   1.0000   1.0000
     0.0000   0.0000   0.0000   0.0000

          k = 0.1875 0.3248 0.0000 (  7043 PWs)   bands (ev):

   -11.4941 -11.3152  -1.7961  -1.7956  -0.1081  -0.0628   0.8802   2.4574
    11.9885  12.0127  12.2805  16.9345

     occupation numbers 
     1.0000   1.0000   1.0000   1.0000   1.0000   1.0000   1.0000   1.0000
     0.0000   0.0000   0.0000   0.0000

          k = 0.1875 0.3248 0.0917 (  7032 PWs)   bands (ev):

   -11.4687 -11.3422  -1.7989  -1.7979  -0.1030  -0.0718   1.0877   2.1941
    11.6642  11.9061  13.2944  16.6943

     occupation numbers 
     1.0000   1.0000   1.0000   1.0000   1.0000   1.0000   1.0000   1.0000
     0.0000   0.0000   0.0000   0.0000

          k = 0.1875 0.3248-0.1834 (  7030 PWs)   bands (ev):

   -11.4063 -11.4063  -1.8008  -1.8008  -0.0891  -0.0891   1.6137   1.6137
    11.7010  11.7010  14.9792  14.9793

     occupation numbers 
     1.0000   1.0000   1.0000   1.0000   1.0000   1.0000   1.0000   1.0000
     0.0000   0.0000   0.0000   0.0000

          k = 0.1875 0.3969 0.0000 (  7035 PWs)   bands (ev):

   -10.9129 -10.7629  -2.7224  -2.6908  -0.7643  -0.7153   1.7595   3.1582
    10.7816  11.1607  13.3202  17.0102

     occupation numbers 
     1.0000   1.0000   1.0000   1.0000   1.0000   1.0000   1.0000   1.0000
     0.0000   0.0000   0.0000   0.0000

          k = 0.1875 0.3969 0.0917 (  7049 PWs)   bands (ev):

   -10.8915 -10.7854  -2.7194  -2.6971  -0.7586  -0.7239   1.9473   2.9325
    10.7288  11.0323  14.0140  16.6941

     occupation numbers 
     1.0000   1.0000   1.0000   1.0000   1.0000   1.0000   1.0000   1.0000
     0.0000   0.0000   0.0000   0.0000

          k = 0.1875 0.3969-0.1834 (  7044 PWs)   bands (ev):

   -10.8390 -10.8390  -2.7099  -2.7099  -0.7427  -0.7427   2.4211   2.4211
    10.8073  10.8073  15.4693  15.4693

     occupation numbers 
     1.0000   1.0000   1.0000   1.0000   1.0000   1.0000   1.0000   1.0000
     0.0000   0.0000   0.0000   0.0000

          k = 0.1875 0.4691 0.0000 (  7047 PWs)   bands (ev):

   -10.3579 -10.2485  -3.5584  -3.5020  -1.1993  -1.1441   2.6659   3.7899
     9.6909  10.3263  14.4542  16.8642

     occupation numbers 
     1.0000   1.0000   1.0000   1.0000   1.0000   1.0000   1.0000   1.0000
     0.0000   0.0000   0.0000   0.0000

          k = 0.1875 0.4691 0.0917 (  7049 PWs)   bands (ev):

   -10.3421 -10.2648  -3.5517  -3.5118  -1.1925  -1.1534   2.8256   3.6217
     9.7047  10.1640  14.9771  16.6253

     occupation numbers 
     1.0000   1.0000   1.0000   1.0000   1.0000   1.0000   1.0000   1.0000
     0.0000   0.0000   0.0000   0.0000

          k = 0.1875 0.4691-0.1834 (  7058 PWs)   bands (ev):

   -10.3037 -10.3037  -3.5332  -3.5332  -1.1742  -1.1742   3.2190   3.2190
     9.8658   9.8658  16.0090  16.0092

     occupation numbers 
     1.0000   1.0000   1.0000   1.0000   1.0000   1.0000   1.0000   1.0000
     0.0000   0.0000   0.0000   0.0000

          k = 0.1875 0.5413 0.0000 (  7051 PWs)   bands (ev):

    -9.9835  -9.9241  -4.0780  -4.0107  -1.4121  -1.3530   3.3651   4.1353
     8.9993   9.7532  15.4828  16.7740

     occupation numbers 
     1.0000   1.0000   1.0000   1.0000   1.0000   1.0000   1.0000   1.0000
     0.0000   0.0000   0.0000   0.0000

          k = 0.1875 0.5413 0.0917 (  7059 PWs)   bands (ev):

    -9.9747  -9.9327  -4.0698  -4.0222  -1.4046  -1.3628   3.4881   4.0377
     9.0251   9.5627  15.8474  16.5820

     occupation numbers 
     1.0000   1.0000   1.0000   1.0000   1.0000   1.0000   1.0000   1.0000
     0.0000   0.0000   0.0000   0.0000

          k = 0.1875 0.5413-0.1834 (  7048 PWs)   bands (ev):

    -9.9537  -9.9537  -4.0476  -4.0476  -1.3848  -1.3848   3.7751   3.7751
     9.2149   9.2150  16.4545  16.4545

     occupation numbers 
     1.0000   1.0000   1.0000   1.0000   1.0000   1.0000   1.0000   1.0000
     0.0000   0.0000   0.0000   0.0000

          k = 0.2500 0.4330 0.0000 (  7043 PWs)   bands (ev):

   -10.3774 -10.2623  -3.2547  -3.2226  -1.5438  -1.5019   2.6243   3.7784
     9.9459  10.3720  14.4596  16.4741

     occupation numbers 
     1.0000   1.0000   1.0000   1.0000   1.0000   1.0000   1.0000   1.0000
     0.0000   0.0000   0.0000   0.0000

          k = 0.2500 0.4330 0.0917 (  7059 PWs)   bands (ev):

   -10.3609 -10.2795  -3.2511  -3.2285  -1.5393  -1.5097   2.7872   3.6039
     9.9269  10.2489  15.0046  16.4819

     occupation numbers 
     1.0000   1.0000   1.0000   1.0000   1.0000   1.0000   1.0000   1.0000
     0.0000   0.0000   0.0000   0.0000

          k = 0.2500 0.4330-0.1834 (  7056 PWs)   bands (ev):

   -10.3205 -10.3205  -3.2409  -3.2409  -1.5261  -1.5261   3.1894   3.1894
    10.0226  10.0226  16.0552  16.0552

     occupation numbers 
     1.0000   1.0000   1.0000   1.0000   1.0000   1.0000   1.0000   1.0000
     0.0000   0.0000   0.0000   0.0000

          k = 0.2500 0.5052 0.0000 (  7052 PWs)   bands (ev):

    -9.9404  -9.8707  -3.6923  -3.6245  -2.0544  -2.0103   3.4261   4.2122
     9.2802   9.7343  15.6584  15.7605

     occupation numbers 
     1.0000   1.0000   1.0000   1.0000   1.0000   1.0000   1.0000   1.0000
     0.0000   0.0000   0.0000   0.0000

          k = 0.2500 0.5052 0.0917 (  7061 PWs)   bands (ev):

    -9.9302  -9.8809  -3.6833  -3.6355  -2.0497  -2.0185   3.5509   4.1113
     9.2645   9.5964  15.9509  16.0578

     occupation numbers 
     1.0000   1.0000   1.0000   1.0000   1.0000   1.0000   1.0000   1.0000
     0.0000   0.0000   0.0000   0.0000

          k = 0.2500 0.5052-0.1834 (  7058 PWs)   bands (ev):

    -9.9056  -9.9056  -3.6604  -3.6604  -2.0359  -2.0359   3.8427   3.8427
     9.3569   9.3569  16.3636  16.3636

     occupation numbers 
     1.0000   1.0000   1.0000   1.0000   1.0000   1.0000   1.0000   1.0000
     0.0000   0.0000   0.0000   0.0000

          k = 0.2500 0.5774 0.0000 (  7063 PWs)   bands (ev):

    -9.7581  -9.7241  -3.8727  -3.7868  -2.2277  -2.1777   3.8323   4.3128
     9.0234   9.4633  15.5080  16.5037

     occupation numbers 
     1.0000   1.0000   1.0000   1.0000   1.0000   1.0000   1.0000   1.0000
     0.0000   0.0000   0.0000   0.0000

          k = 0.2500 0.5774 0.0917 (  7063 PWs)   bands (ev):

    -9.7530  -9.7290  -3.8612  -3.8005  -2.2222  -2.1867   3.9232   4.2677
     9.0006   9.3172  15.7489  16.8854

     occupation numbers 
     1.0000   1.0000   1.0000   1.0000   1.0000   1.0000   1.0000   1.0000
     0.0000   0.0000   0.0000   0.0000

          k = 0.2500 0.5774-0.1834 (  7052 PWs)   bands (ev):

    -9.7409  -9.7409  -3.8319  -3.8319  -2.2062  -2.2062   4.1183   4.1184
     9.0766   9.0766  16.4146  16.4151

     occupation numbers 
     1.0000   1.0000   1.0000   1.0000   1.0000   1.0000   1.0000   1.0000
     0.0000   0.0000   0.0000   0.0000

          k = 0.3125 0.5413 0.0000 (  7057 PWs)   bands (ev):

    -9.6785  -9.6527  -3.6521  -3.5426  -2.6558  -2.6442   4.0295   4.3482
     9.1167   9.3115  15.1221  16.7991

     occupation numbers 
     1.0000   1.0000   1.0000   1.0000   1.0000   1.0000   1.0000   1.0000
     0.0000   0.0000   0.0000   0.0000

          k = 0.3125 0.5413 0.0917 (  7059 PWs)   bands (ev):

    -9.6746  -9.6564  -3.6364  -3.5591  -2.6565  -2.6483   4.1011   4.3299
     9.0562   9.1996  15.4080  17.0108

     occupation numbers 
     1.0000   1.0000   1.0000   1.0000   1.0000   1.0000   1.0000   1.0000
     0.0000   0.0000   0.0000   0.0000

          k = 0.3125 0.5413-0.1834 (  7048 PWs)   bands (ev):

    -9.6654  -9.6654  -3.5982  -3.5982  -2.6548  -2.6548   4.2426   4.2426
     9.0434   9.0434  16.2043  16.2043

     occupation numbers 
     1.0000   1.0000   1.0000   1.0000   1.0000   1.0000   1.0000   1.0000
     0.0000   0.0000   0.0000   0.0000

     the Fermi energy is     5.7819 ev

!    total energy              =     -53.71316299 Ry
     estimated scf accuracy    <       0.00000080 Ry
     smearing contrib. (-TS)   =       0.00000000 Ry
     internal energy E=F+TS    =     -53.71316299 Ry

     The total energy is F=E-TS. E is the sum of the following terms:
     one-electron contribution =     -18.05517133 Ry
     hartree contribution      =      17.20467788 Ry
     xc contribution           =     -17.40033559 Ry
     ewald contribution        =     -35.46233395 Ry

     convergence has been achieved in   7 iterations


     -----------------------------------------------
     Non-local corr. energy    =       0.18905020 Ry
     -----------------------------------------------


     Forces acting on atoms (cartesian axes, Ry/au):

     atom    1 type  1   force =    -0.00000000   -0.00000000    0.00000000
     atom    2 type  2   force =     0.00000000    0.00000000    0.00000000
     atom    3 type  2   force =    -0.00000000   -0.00000000    0.00000000
     atom    4 type  1   force =     0.00000000    0.00000000    0.00000000
     The non-local contrib.  to forces
     atom    1 type  1   force =     0.00000000   -0.00000000    0.00000000
     atom    2 type  2   force =    -0.00000000   -0.00000000    0.00000000
     atom    3 type  2   force =     0.00000000   -0.00000000    0.00000000
     atom    4 type  1   force =     0.00000000    0.00000000    0.00000000
     The ionic contribution  to forces
     atom    1 type  1   force =     0.00000773   -0.00000446   -0.00000000
     atom    2 type  2   force =    -0.00000774    0.00000447   -0.00000000
     atom    3 type  2   force =     0.00000774   -0.00000447    0.00000000
     atom    4 type  1   force =    -0.00000773    0.00000446    0.00000000
     The local contribution  to forces
     atom    1 type  1   force =    -0.00000000   -0.00000000    0.00000000
     atom    2 type  2   force =    -0.00003347    0.00001932    0.00000000
     atom    3 type  2   force =     0.00000000    0.00000000    0.00000000
     atom    4 type  1   force =     0.00000419   -0.00000242    0.00000000
     The core correction contribution to forces
     atom    1 type  1   force =    -0.00000001   -0.00000001    0.00000000
     atom    2 type  2   force =     0.00000138   -0.00000082    0.00000000
     atom    3 type  2   force =    -0.00000001   -0.00000002   -0.00000000
     atom    4 type  1   force =     0.00000025   -0.00000016    0.00000000
     The Hubbard contrib.    to forces
     atom    1 type  1   force =     0.00000000    0.00000000    0.00000000
     atom    2 type  2   force =     0.00000000    0.00000000    0.00000000
     atom    3 type  2   force =     0.00000000    0.00000000    0.00000000
     atom    4 type  1   force =     0.00000000    0.00000000    0.00000000
     The SCF correction term to forces
     atom    1 type  1   force =    -0.00000000    0.00000000    0.00000000
     atom    2 type  2   force =    -0.00000000    0.00000000    0.00000000
     atom    3 type  2   force =    -0.00000000    0.00000000    0.00000000
     atom    4 type  1   force =     0.00000000   -0.00000000    0.00000000

     Total force =     0.000000     Total SCF correction =     0.000000


     Computing stress (Cartesian axis) and pressure



     -----------------------------------------------
     Non-local corr. energy    =       0.18905020 Ry
     -----------------------------------------------

          total   stress  (Ry/bohr**3)                   (kbar)     P=        9.27
   0.00014125   0.00000000  -0.00000000           20.78        0.00       -0.00
   0.00000000   0.00014125   0.00000000            0.00       20.78        0.00
  -0.00000000   0.00000000  -0.00009345           -0.00        0.00      -13.75

     kinetic stress (kbar)  14172.47     -0.00      0.00
                               -0.00  14172.47      0.00
                                0.00     -0.00  15408.44

     local   stress (kbar) -19069.37      0.01     -0.00
                                0.01 -19069.36     -0.00
                               -0.00     -0.00  21068.74

     nonloc. stress (kbar)  -2337.33      0.00      0.00
                                0.00  -2337.33     -0.00
                                0.00     -0.00  -2255.43

     hartree stress (kbar)   7619.68     -0.00      0.00
                               -0.00   7619.68     -0.00
                                0.00     -0.00  -5171.66

     exc-cor stress (kbar)  -1423.85     -0.00      0.00
                               -0.00  -1423.85      0.00
                                0.00      0.00  -1558.65

     corecor stress (kbar)  -1589.74      0.00     -0.00
                                0.00  -1589.74      0.00
                               -0.00      0.00  -1554.87

     ewald   stress (kbar)   2635.13     -0.02     -0.00
                               -0.02   2635.11     -0.00
                               -0.00     -0.00 -26021.82

     hubbard stress (kbar)      0.00      0.00      0.00
                                0.00      0.00      0.00
                                0.00      0.00      0.00

     DFT-D   stress (kbar)      0.00      0.00      0.00
                                0.00      0.00      0.00
                                0.00      0.00      0.00

     XDM     stress (kbar)      0.00      0.00      0.00
                                0.00      0.00      0.00
                                0.00      0.00      0.00

     dft-nl  stress (kbar)     13.79      0.00      0.00
                                0.00     13.79      0.00
                                0.00      0.00     71.50

     TS-vdW  stress (kbar)      0.00      0.00      0.00
                                0.00      0.00      0.00
                                0.00      0.00      0.00

     MDB     stress (kbar)      0.00      0.00      0.00
                                0.00      0.00      0.00
                                0.00      0.00      0.00

     3D-RISM stress (kbar)      0.00      0.00      0.00
                                0.00      0.00      0.00
                                0.00      0.00      0.00


     BFGS Geometry Optimization
     Energy error            =      0.0E+00 Ry
     Gradient error          =      2.4E-22 Ry/Bohr
     Cell gradient error     =      2.1E+01 kbar

     number of scf cycles    =   1
     number of bfgs steps    =   0

     enthalpy           new  =     -53.7131629890 Ry

     new trust radius        =       0.0111976459 bohr
     new conv_thr            =       0.0000010000 Ry

     new unit-cell volume =    252.57457 a.u.^3 (    37.42769 Ang^3 )
     density =      2.12960 g/cm^3

CELL_PARAMETERS (alat=  4.74000000)
   1.003531221   0.000000000  -0.000000000
  -0.501765610   0.869083531   0.000000000
  -0.000000000   0.000000000   2.719331746

ATOMIC_POSITIONS (crystal)
B             0.0000000000        0.0000000000        0.0000000000    0   0   0
N             0.6666670000        0.3333330000        0.0000000000    0   0   0
N            -0.0000000000       -0.0000000000        0.5000000000
B             0.6666670000        0.3333330000        0.5000000000



     Writing config-only to output data dir ./tmp/BNBULK_AA1_PBE_vdW.save/
     NEW-OLD atomic charge density approx. for the potential


     -----------------------------------------------
     Non-local corr. energy    =       0.18970662 Ry
     -----------------------------------------------

     extrapolated charge   16.07519, renormalised to   16.00000

     total cpu time spent up to now is       32.2 secs

     Self-consistent Calculation

     iteration #  1     ecut=   140.00 Ry     beta= 0.70
     Davidson diagonalization with overlap

---- Real-time Memory Report at c_bands before calling an iterative solver
             0 MiB given to the printing process from OS
             0 MiB allocation reported by mallinfo(arena+hblkhd)
             0 MiB available memory on the node where the printing process lives
------------------
     ethr =  1.00E-06,  avg # of iterations =  3.2


     -----------------------------------------------
     Non-local corr. energy    =       0.18804318 Ry
     -----------------------------------------------


     total cpu time spent up to now is       34.9 secs

     total energy              =     -53.71236670 Ry
     estimated scf accuracy    <       0.00068771 Ry

     iteration #  2     ecut=   140.00 Ry     beta= 0.70
     Davidson diagonalization with overlap

---- Real-time Memory Report at c_bands before calling an iterative solver
             0 MiB given to the printing process from OS
             0 MiB allocation reported by mallinfo(arena+hblkhd)
[...]
    12.0003  12.0003  15.5789  15.5789

     occupation numbers 
     1.0000   1.0000   1.0000   1.0000   1.0000   1.0000   1.0000   1.0000
     0.0000   0.0000   0.0000   0.0000

          k = 0.1247 0.4321-0.0000 (  6739 PWs)   bands (ev):

   -10.3766 -10.1714  -2.7677  -2.6764   0.1527   0.2369   2.1969   3.9042
    10.6307  11.5931  14.0151  16.0923

     occupation numbers 
     1.0000   1.0000   1.0000   1.0000   1.0000   1.0000   1.0000   1.0000
     0.0000   0.0000   0.0000   0.0000

          k = 0.1247 0.4321 0.0961 (  6746 PWs)   bands (ev):

   -10.3475 -10.2024  -2.7581  -2.6933   0.1632   0.2229   2.4281   3.6314
    10.6507  11.3454  14.6772  16.0730

     occupation numbers 
     1.0000   1.0000   1.0000   1.0000   1.0000   1.0000   1.0000   1.0000
     0.0000   0.0000   0.0000   0.0000

          k = 0.1247 0.4321-0.1922 (  6748 PWs)   bands (ev):

   -10.2759 -10.2759  -2.7293  -2.7292   0.1913   0.1913   3.0088   3.0088
    10.9027  10.9027  15.7444  15.7444

     occupation numbers 
     1.0000   1.0000   1.0000   1.0000   1.0000   1.0000   1.0000   1.0000
     0.0000   0.0000   0.0000   0.0000

          k = 0.1247 0.5041-0.0000 (  6742 PWs)   bands (ev):

    -9.8515  -9.7158  -3.5822  -3.4895  -0.1055  -0.0172   3.0822   4.4053
     9.5730  10.7691  14.8859  15.9670

     occupation numbers 
     1.0000   1.0000   1.0000   1.0000   1.0000   1.0000   1.0000   1.0000
     0.0000   0.0000   0.0000   0.0000

          k = 0.1247 0.5041 0.0961 (  6751 PWs)   bands (ev):

    -9.8318  -9.7359  -3.5725  -3.5068  -0.0941  -0.0315   3.2773   4.2192
     9.6255  10.4764  15.2999  15.9711

     occupation numbers 
     1.0000   1.0000   1.0000   1.0000   1.0000   1.0000   1.0000   1.0000
     0.0000   0.0000   0.0000   0.0000

          k = 0.1247 0.5041-0.1922 (  6752 PWs)   bands (ev):

    -9.7841  -9.7841  -3.5434  -3.5434  -0.0642  -0.0642   3.7513   3.7513
     9.9411   9.9412  15.8495  15.8496

     occupation numbers 
     1.0000   1.0000   1.0000   1.0000   1.0000   1.0000   1.0000   1.0000
     0.0000   0.0000   0.0000   0.0000

          k = 0.1247 0.5761-0.0000 (  6751 PWs)   bands (ev):

    -9.6216  -9.5422  -3.8921  -3.8060  -0.1922  -0.1026   3.5166   4.5498
     9.1644  10.4220  15.2763  15.9234

     occupation numbers 
     1.0000   1.0000   1.0000   1.0000   1.0000   1.0000   1.0000   1.0000
     0.0000   0.0000   0.0000   0.0000

          k = 0.1247 0.5761 0.0961 (  6755 PWs)   bands (ev):

    -9.6098  -9.5536  -3.8836  -3.8226  -0.1805  -0.1170   3.6841   4.4259
     9.2130  10.1061  15.5458  15.9361

     occupation numbers 
     1.0000   1.0000   1.0000   1.0000   1.0000   1.0000   1.0000   1.0000
     0.0000   0.0000   0.0000   0.0000

          k = 0.1247 0.5761-0.1922 (  6764 PWs)   bands (ev):

    -9.5815  -9.5815  -3.8571  -3.8571  -0.1501  -0.1501   4.0752   4.0752
     9.5346   9.5346  15.8797  15.8798

     occupation numbers 
     1.0000   1.0000   1.0000   1.0000   1.0000   1.0000   1.0000   1.0000
     0.0000   0.0000   0.0000   0.0000

          k = 0.1871 0.3241-0.0000 (  6751 PWs)   bands (ev):

   -11.0477 -10.7894  -1.3319  -1.3200   0.3516   0.4188   1.1685   3.1529
    12.3273  12.6196  13.0232  17.2669

     occupation numbers 
     1.0000   1.0000   1.0000   1.0000   1.0000   1.0000   1.0000   1.0000
     0.0000   0.0000   0.0000   0.0000

          k = 0.1871 0.3241 0.0961 (  6741 PWs)   bands (ev):

   -11.0115 -10.8290  -1.3353  -1.3254   0.3585   0.4043   1.4299   2.8183
    12.0807  12.4701  14.0567  17.3363

     occupation numbers 
     1.0000   1.0000   1.0000   1.0000   1.0000   1.0000   1.0000   1.0000
     0.0000   0.0000   0.0000   0.0000

          k = 0.1871 0.3241-0.1922 (  6758 PWs)   bands (ev):

   -10.9219 -10.9219  -1.3345  -1.3345   0.3783   0.3783   2.0883   2.0883
    12.1774  12.1774  15.8466  15.8466

     occupation numbers 
     1.0000   1.0000   1.0000   1.0000   1.0000   1.0000   1.0000   1.0000
     0.0000   0.0000   0.0000   0.0000

          k = 0.1871 0.3961-0.0000 (  6743 PWs)   bands (ev):

   -10.4640 -10.2466  -2.2553  -2.2083  -0.3044  -0.2306   2.0528   3.8188
    11.1344  11.7504  14.0267  17.3580

     occupation numbers 
     1.0000   1.0000   1.0000   1.0000   1.0000   1.0000   1.0000   1.0000
     0.0000   0.0000   0.0000   0.0000

          k = 0.1871 0.3961 0.0961 (  6755 PWs)   bands (ev):

   -10.4332 -10.2796  -2.2515  -2.2181  -0.2965  -0.2443   2.2903   3.5333
    11.0913  11.5723  14.7853  17.2266

     occupation numbers 
     1.0000   1.0000   1.0000   1.0000   1.0000   1.0000   1.0000   1.0000
     0.0000   0.0000   0.0000   0.0000

          k = 0.1871 0.3961-0.1922 (  6752 PWs)   bands (ev):

   -10.3575 -10.3575  -2.2378  -2.2378  -0.2732  -0.2732   2.8879   2.8879
    11.2418  11.2418  16.2702  16.2702

     occupation numbers 
     1.0000   1.0000   1.0000   1.0000   1.0000   1.0000   1.0000   1.0000
     0.0000   0.0000   0.0000   0.0000

          k = 0.1871 0.4681-0.0000 (  6758 PWs)   bands (ev):

    -9.9041  -9.7448  -3.0913  -3.0087  -0.7412  -0.6561   2.9712   4.3955
    10.0669  10.9215  15.0970  17.2135

     occupation numbers 
     1.0000   1.0000   1.0000   1.0000   1.0000   1.0000   1.0000   1.0000
     0.0000   0.0000   0.0000   0.0000

          k = 0.1871 0.4681 0.0961 (  6758 PWs)   bands (ev):

    -9.8812  -9.7686  -3.0822  -3.0237  -0.7313  -0.6710   3.1763   4.1871
    10.0773  10.6997  15.6679  17.0817

     occupation numbers 
     1.0000   1.0000   1.0000   1.0000   1.0000   1.0000   1.0000   1.0000
     0.0000   0.0000   0.0000   0.0000

          k = 0.1871 0.4681-0.1922 (  6754 PWs)   bands (ev):

    -9.8254  -9.8254  -3.0559  -3.0559  -0.7036  -0.7036   3.6789   3.6789
    10.2925  10.2925  16.6576  16.6577

     occupation numbers 
     1.0000   1.0000   1.0000   1.0000   1.0000   1.0000   1.0000   1.0000
     0.0000   0.0000   0.0000   0.0000

          k = 0.1871 0.5401-0.0000 (  6771 PWs)   bands (ev):

    -9.5218  -9.4344  -3.6088  -3.5117  -0.9550  -0.8633   3.6914   4.6725
     9.4118  10.3549  16.0196  17.1205

     occupation numbers 
     1.0000   1.0000   1.0000   1.0000   1.0000   1.0000   1.0000   1.0000
     0.0000   0.0000   0.0000   0.0000

          k = 0.1871 0.5401 0.0961 (  6752 PWs)   bands (ev):

    -9.5089  -9.4471  -3.5978  -3.5292  -0.9440  -0.8789   3.8545   4.5590
     9.4206  10.0980  16.4139  16.9836

     occupation numbers 
     1.0000   1.0000   1.0000   1.0000   1.0000   1.0000   1.0000   1.0000
     0.0000   0.0000   0.0000   0.0000

          k = 0.1871 0.5401-0.1922 (  6758 PWs)   bands (ev):

    -9.4779  -9.4779  -3.5668  -3.5668  -0.9137  -0.9137   4.2302   4.2302
     9.6421   9.6421  16.9395  16.9395

     occupation numbers 
     1.0000   1.0000   1.0000   1.0000   1.0000   1.0000   1.0000   1.0000
     0.0000   0.0000   0.0000   0.0000

          k = 0.2495 0.4321-0.0000 (  6767 PWs)   bands (ev):

    -9.9247  -9.7572  -2.7792  -2.7399  -1.0798  -1.0183   2.9284   4.3894
    10.3174  10.9622  15.1312  16.8694

     occupation numbers 
     1.0000   1.0000   1.0000   1.0000   1.0000   1.0000   1.0000   1.0000
     0.0000   0.0000   0.0000   0.0000

          k = 0.2495 0.4321 0.0961 (  6756 PWs)   bands (ev):

    -9.9007  -9.7823  -2.7753  -2.7479  -1.0742  -1.0307   3.1370   4.1728
    10.2962  10.7821  15.7345  16.9510

     occupation numbers 
     1.0000   1.0000   1.0000   1.0000   1.0000   1.0000   1.0000   1.0000
     0.0000   0.0000   0.0000   0.0000

          k = 0.2495 0.4321-0.1922 (  6770 PWs)   bands (ev):

    -9.8421  -9.8421  -2.7637  -2.7637  -1.0559  -1.0559   3.6499   3.6499
    10.4480  10.4481  16.7596  16.7596

     occupation numbers 
     1.0000   1.0000   1.0000   1.0000   1.0000   1.0000   1.0000   1.0000
     0.0000   0.0000   0.0000   0.0000

          k = 0.2495 0.5041-0.0000 (  6765 PWs)   bands (ev):

    -9.4810  -9.3791  -3.2219  -3.1266  -1.5922  -1.5250   3.7531   4.7494
     9.7009  10.3164  16.0986  16.2663

     occupation numbers 
     1.0000   1.0000   1.0000   1.0000   1.0000   1.0000   1.0000   1.0000
     0.0000   0.0000   0.0000   0.0000

          k = 0.2495 0.5041 0.0961 (  6767 PWs)   bands (ev):

    -9.4661  -9.3941  -3.2098  -3.1427  -1.5861  -1.5384   3.9180   4.6323
     9.6645  10.1193  16.3386  16.7034

     occupation numbers 
     1.0000   1.0000   1.0000   1.0000   1.0000   1.0000   1.0000   1.0000
     0.0000   0.0000   0.0000   0.0000

          k = 0.2495 0.5041-0.1922 (  6766 PWs)   bands (ev):

    -9.4301  -9.4301  -3.1782  -3.1782  -1.5658  -1.5658   4.2979   4.2979
     9.7815   9.7815  16.8900  16.8900

     occupation numbers 
     1.0000   1.0000   1.0000   1.0000   1.0000   1.0000   1.0000   1.0000
     0.0000   0.0000   0.0000   0.0000

          k = 0.2495 0.5761-0.0000 (  6759 PWs)   bands (ev):

    -9.2923  -9.2421  -3.4048  -3.2815  -1.7682  -1.6906   4.1836   4.7953
     9.4799  10.0372  15.8305  17.0211

     occupation numbers 
     1.0000   1.0000   1.0000   1.0000   1.0000   1.0000   1.0000   1.0000
     0.0000   0.0000   0.0000   0.0000

          k = 0.2495 0.5761 0.0961 (  6767 PWs)   bands (ev):

    -9.2848  -9.2493  -3.3889  -3.3018  -1.7605  -1.7053   4.3091   4.7516
     9.4253   9.8306  16.1085  17.4390

     occupation numbers 
     1.0000   1.0000   1.0000   1.0000   1.0000   1.0000   1.0000   1.0000
     0.0000   0.0000   0.0000   0.0000

          k = 0.2495 0.5761-0.1922 (  6770 PWs)   bands (ev):

    -9.2668  -9.2668  -3.3475  -3.3475  -1.7364  -1.7364   4.5713   4.5713
     9.5017   9.5017  16.8664  16.8664

     occupation numbers 
     1.0000   1.0000   1.0000   1.0000   1.0000   1.0000   1.0000   1.0000
     0.0000   0.0000   0.0000   0.0000

          k = 0.3118 0.5401-0.0000 (  6767 PWs)   bands (ev):

    -9.2113  -9.1734  -3.1857  -3.0289  -2.1880  -2.1707   4.3985   4.8017
     9.6015   9.8635  15.4307  17.3381

     occupation numbers 
     1.0000   1.0000   1.0000   1.0000   1.0000   1.0000   1.0000   1.0000
     0.0000   0.0000   0.0000   0.0000

          k = 0.3118 0.5401 0.0961 (  6769 PWs)   bands (ev):

    -9.2055  -9.1787  -3.1634  -3.0527  -2.1904  -2.1781   4.5009   4.7930
     9.5005   9.6963  15.7538  17.5920

     occupation numbers 
     1.0000   1.0000   1.0000   1.0000   1.0000   1.0000   1.0000   1.0000
     0.0000   0.0000   0.0000   0.0000

          k = 0.3118 0.5401-0.1922 (  6756 PWs)   bands (ev):

    -9.1919  -9.1919  -3.1088  -3.1088  -2.1892  -2.1892   4.6948   4.6948
     9.4675   9.4676  16.6466  16.6466

     occupation numbers 
     1.0000   1.0000   1.0000   1.0000   1.0000   1.0000   1.0000   1.0000
     0.0000   0.0000   0.0000   0.0000

     the Fermi energy is     6.3113 ev

!    total energy              =     -53.71376650 Ry
     estimated scf accuracy    <          1.6E-09 Ry
     smearing contrib. (-TS)   =       0.00000000 Ry
     internal energy E=F+TS    =     -53.71376650 Ry

     The total energy is F=E-TS. E is the sum of the following terms:
     one-electron contribution =     -14.53460499 Ry
     hartree contribution      =      15.72182221 Ry
     xc contribution           =     -17.39561787 Ry
     ewald contribution        =     -37.50536585 Ry

     convergence has been achieved in  10 iterations


     -----------------------------------------------
     Non-local corr. energy    =       0.18512988 Ry
     -----------------------------------------------


     Forces acting on atoms (cartesian axes, Ry/au):

     atom    1 type  1   force =     0.00000000    0.00000000   -0.00000000
     atom    2 type  2   force =     0.00000000    0.00000000   -0.00000000
     atom    3 type  2   force =     0.00000000   -0.00000000    0.00000000
     atom    4 type  1   force =    -0.00000000   -0.00000000    0.00000000
     The non-local contrib.  to forces
     atom    1 type  1   force =    -0.00000000    0.00000000   -0.00000000
     atom    2 type  2   force =     0.00000000    0.00000000    0.00000000
     atom    3 type  2   force =     0.00000000    0.00000000    0.00000000
     atom    4 type  1   force =     0.00000000    0.00000000   -0.00000000
     The ionic contribution  to forces
     atom    1 type  1   force =     0.00000770   -0.00000445   -0.00000000
     atom    2 type  2   force =    -0.00000771    0.00000445   -0.00000000
     atom    3 type  2   force =     0.00000771   -0.00000445    0.00000000
     atom    4 type  1   force =    -0.00000770    0.00000445    0.00000000
     The local contribution  to forces
     atom    1 type  1   force =    -0.00000000   -0.00000000    0.00000000
     atom    2 type  2   force =    -0.00003358    0.00001939    0.00000000
     atom    3 type  2   force =     0.00000000    0.00000000    0.00000000
     atom    4 type  1   force =     0.00000417   -0.00000241    0.00000000
     The core correction contribution to forces
     atom    1 type  1   force =     0.00000000    0.00000000    0.00000000
     atom    2 type  2   force =     0.00000138   -0.00000080   -0.00000000
     atom    3 type  2   force =    -0.00000000   -0.00000000   -0.00000000
     atom    4 type  1   force =     0.00000025   -0.00000015    0.00000000
     The Hubbard contrib.    to forces
     atom    1 type  1   force =     0.00000000    0.00000000    0.00000000
     atom    2 type  2   force =     0.00000000    0.00000000    0.00000000
     atom    3 type  2   force =     0.00000000    0.00000000    0.00000000
     atom    4 type  1   force =     0.00000000    0.00000000    0.00000000
     The SCF correction term to forces
     atom    1 type  1   force =     0.00000000   -0.00000000    0.00000000
     atom    2 type  2   force =    -0.00000000    0.00000000   -0.00000000
     atom    3 type  2   force =     0.00000000   -0.00000000   -0.00000000
     atom    4 type  1   force =     0.00000000   -0.00000000    0.00000000

     Total force =     0.000000     Total SCF correction =     0.000000


     Computing stress (Cartesian axis) and pressure



     -----------------------------------------------
     Non-local corr. energy    =       0.18512988 Ry
     -----------------------------------------------

          total   stress  (Ry/bohr**3)                   (kbar)     P=        0.04
   0.00000009   0.00000000   0.00000000            0.01        0.00        0.00
   0.00000000   0.00000009  -0.00000000            0.00        0.01       -0.00
   0.00000000  -0.00000000   0.00000067            0.00       -0.00        0.10

     kinetic stress (kbar)  14761.79     -0.00     -0.00
                               -0.00  14761.79     -0.00
                                0.00     -0.00  16080.77

     local   stress (kbar) -17678.46      0.01      0.00
                                0.01 -17678.45      0.00
                                0.00      0.00  19697.29

     nonloc. stress (kbar)  -2430.64      0.00     -0.00
                                0.00  -2430.64      0.00
                               -0.00      0.00  -2353.50

     hartree stress (kbar)   7031.65      0.00      0.00
                                0.00   7031.65      0.00
                                0.00      0.00  -4463.79

     exc-cor stress (kbar)  -1485.00     -0.00     -0.00
                               -0.00  -1485.00      0.00
                               -0.00      0.00  -1621.41

     corecor stress (kbar)  -1657.98      0.00      0.00
                                0.00  -1657.98      0.00
                                0.00      0.00  -1622.26

     ewald   stress (kbar)   1443.90     -0.02      0.00
                               -0.02   1443.87      0.00
                                0.00      0.00 -25787.98

     hubbard stress (kbar)      0.00      0.00      0.00
                                0.00      0.00      0.00
                                0.00      0.00      0.00

     DFT-D   stress (kbar)      0.00      0.00      0.00
                                0.00      0.00      0.00
                                0.00      0.00      0.00

     XDM     stress (kbar)      0.00      0.00      0.00
                                0.00      0.00      0.00
                                0.00      0.00      0.00

     dft-nl  stress (kbar)     14.77      0.00      0.00
                                0.00     14.77     -0.00
                                0.00     -0.00     70.98

     TS-vdW  stress (kbar)      0.00      0.00      0.00
                                0.00      0.00      0.00
                                0.00      0.00      0.00

     MDB     stress (kbar)      0.00      0.00      0.00
                                0.00      0.00      0.00
                                0.00      0.00      0.00

     3D-RISM stress (kbar)      0.00      0.00      0.00
                                0.00      0.00      0.00
                                0.00      0.00      0.00


     Writing all to output data dir ./tmp/BNBULK_AA1_PBE_vdW.save/

     init_run     :     11.48s CPU     11.59s WALL (       2 calls)
     electrons    :    304.06s CPU    308.43s WALL (      13 calls)
     update_pot   :      7.56s CPU      7.68s WALL (      11 calls)
     forces       :      7.69s CPU      7.83s WALL (      13 calls)
     stress       :     30.41s CPU     31.67s WALL (      13 calls)

     Called by init_run:
     wfcinit      :      1.59s CPU      1.61s WALL (       2 calls)
     wfcinit:atom :      0.04s CPU      0.04s WALL (     180 calls)
     wfcinit:wfcr :      1.42s CPU      1.42s WALL (     180 calls)
     potinit      :      8.89s CPU      8.98s WALL (       2 calls)
     hinit0       :      0.89s CPU      0.90s WALL (       2 calls)

     Called by electrons:
     c_bands      :    262.23s CPU    264.14s WALL (     136 calls)
     sum_band     :     33.66s CPU     34.90s WALL (     136 calls)
     v_of_rho     :     16.88s CPU     17.77s WALL (     147 calls)
     v_h          :      0.09s CPU      0.09s WALL (     147 calls)
     v_xc         :     18.27s CPU     19.31s WALL (     173 calls)
     mix_rho      :      0.35s CPU      0.77s WALL (     136 calls)
     vdW_kernel   :      8.49s CPU      8.57s WALL (       1 calls)

     Called by c_bands:
     init_us_2    :      6.11s CPU      6.24s WALL (   27000 calls)
     init_us_2:cp :      6.06s CPU      6.16s WALL (   27000 calls)
     cegterg      :    251.36s CPU    252.60s WALL (   12240 calls)

     Called by sum_band:
     sum_band:wei :      0.02s CPU      0.02s WALL (     136 calls)
     sum_band:loo :     33.42s CPU     34.65s WALL (     136 calls)
     sum_band:buf :      0.62s CPU      0.64s WALL (   12240 calls)
     sum_band:ini :      2.51s CPU      2.59s WALL (   12240 calls)

     Called by *egterg:
     cdiaghg      :      7.66s CPU      7.83s WALL (   41926 calls)
     cegterg:over :     13.57s CPU     13.96s WALL (   30856 calls)
     cegterg:upda :     11.25s CPU     11.08s WALL (   30856 calls)
     cegterg:last :     15.41s CPU     12.64s WALL (   25219 calls)
     h_psi        :    194.69s CPU    196.91s WALL (   43276 calls)
     g_psi        :      1.41s CPU      1.87s WALL (   30856 calls)

     Called by h_psi:
     h_psi:calbec :     14.32s CPU     14.58s WALL (   43276 calls)
     vloc_psi     :    160.60s CPU    166.72s WALL (   43276 calls)
     add_vuspsi   :     17.99s CPU     13.59s WALL (   43276 calls)

     General routines
     calbec       :     17.34s CPU     17.57s WALL (   49126 calls)
     fft          :      4.03s CPU      4.15s WALL (   11017 calls)
     ffts         :      0.04s CPU      0.04s WALL (     136 calls)
     fftw         :    168.63s CPU    174.48s WALL (  927130 calls)

     Parallel routines

     PWSCF        :   6m 1.58s CPU   6m 7.75s WALL


   This run was terminated on:  13:59:52  12Apr2024            

=------------------------------------------------------------------------------=
   JOB DONE.
=------------------------------------------------------------------------------=
