
     Program PWSCF v.7.2 starts on  6Apr2024 at 18:31:26 

     This program is part of the open-source Quantum ESPRESSO suite
     for quantum simulation of materials; please cite
         "P. Giannozzi et al., J. Phys.:Condens. Matter 21 395502 (2009);
         "P. Giannozzi et al., J. Phys.:Condens. Matter 29 465901 (2017);
         "P. Giannozzi et al., J. Chem. Phys. 152 154105 (2020);
          URL http://www.quantum-espresso.org", 
     in publications or presentations arising from this work. More details at
     http://www.quantum-espresso.org/quote

     Parallel version (MPI & OpenMP), running on       8 processor cores
     Number of MPI processes:                 8
     Threads/MPI process:                     1

     MPI processes distributed on     1 nodes
     0 MiB available memory on the printing compute node when the environment starts

     Waiting for input...
     Reading input from standard input

     Current dimensions of program PWSCF are:
     Max number of different atomic species (ntypx) = 10
     Max number of k-points (npk) =  40000
     Max angular momentum in pseudopotentials (lmaxx) =  4

     IMPORTANT: XC functional enforced from input :
     Exchange-correlation= VDW-DF2-B86R
                           (   1   4  26   0   2   0   0)
     Any further DFT definition will be discarded
     Please, verify this is what you really want


     R & G space division:  proc/nbgrp/npool/nimage =       8
     Subspace diagonalization in iterative solution of the eigenvalue problem:
     a serial algorithm will be used


     Parallelization info
     --------------------
     sticks:   dense  smooth     PW     G-vecs:    dense   smooth      PW
     Min         107     107     31                 7025     7025    1093
     Max         109     109     32                 7033     7033    1102
     Sum         859     859    253                56215    56215    8789

     Using Slab Decomposition



     bravais-lattice index     =            4
     lattice parameter (alat)  =       4.7400  a.u.
     unit-cell volume          =     251.3875 (a.u.)^3
     number of atoms/cell      =            4
     number of atomic types    =            2
     number of electrons       =        16.00
     number of Kohn-Sham states=           12
     kinetic-energy cutoff     =     140.0000  Ry
     charge density cutoff     =     560.0000  Ry
     scf convergence threshold =      1.0E-06
     mixing beta               =       0.7000
     number of iterations used =            8  plain     mixing
     energy convergence thresh.=      1.0E-04
     force convergence thresh. =      1.0E-03
     press convergence thresh. =      5.0E-01
     Exchange-correlation= VDW-DF2-B86R
                           (   1   4  26   0   2   0   0)
     nstep                     =           50


     celldm(1)=   4.740000  celldm(2)=   0.000000  celldm(3)=   2.725700
     celldm(4)=   0.000000  celldm(5)=   0.000000  celldm(6)=   0.000000

     crystal axes: (cart. coord. in units of alat)
               a(1) = (   1.000000   0.000000   0.000000 )  
               a(2) = (  -0.500000   0.866025   0.000000 )  
               a(3) = (   0.000000   0.000000   2.725700 )  

     reciprocal axes: (cart. coord. in units 2 pi/alat)
               b(1) = (  1.000000  0.577350 -0.000000 )  
               b(2) = (  0.000000  1.154701  0.000000 )  
               b(3) = (  0.000000 -0.000000  0.366878 )  


     PseudoPot. # 1 for B  read from file:
     ../../../Pseudo/PBE/B.upf
     MD5 check sum: 72f82fc31bc892420d0cab7e25c88ab8
     Pseudo is Norm-conserving + core correction, Zval =  3.0
     Generated using ONCVPSP code by D. R. Hamann
     Using radial grid of 1534 points,  4 beta functions with: 
                l(1) =   0
                l(2) =   0
                l(3) =   1
                l(4) =   1

     PseudoPot. # 2 for N  read from file:
     ../../../Pseudo/PBE/N.upf
     MD5 check sum: d34365f73bb0e2ee98afc20ec3e87676
     Pseudo is Norm-conserving + core correction, Zval =  5.0
     Generated using ONCVPSP code by D. R. Hamann
     Using radial grid of 1058 points,  4 beta functions with: 
                l(1) =   0
                l(2) =   0
                l(3) =   1
                l(4) =   1

     atomic species   valence    mass     pseudopotential
        B              3.00    10.00000     B ( 1.00)
        N              5.00    14.00000     N ( 1.00)

     24 Sym. Ops., with inversion, found (12 have fractional translation)


                                    s                        frac. trans.

      isym =  1     identity                                     

 cryst.   s( 1) = (     1          0          0      )
                  (     0          1          0      )
                  (     0          0          1      )

 cart.    s( 1) = (  1.0000000  0.0000000  0.0000000 )
                  (  0.0000000  1.0000000  0.0000000 )
                  (  0.0000000  0.0000000  1.0000000 )


      isym =  2     180 deg rotation - cart. axis [0,0,1]        

 cryst.   s( 2) = (    -1          0          0      )    f =(  0.3333330 )
                  (     0         -1          0      )       ( -0.3333330 )
                  (     0          0          1      )       ( -0.5000000 )

 cart.    s( 2) = ( -1.0000000  0.0000000  0.0000000 )    f =(  0.4999995 )
                  (  0.0000000 -1.0000000  0.0000000 )       ( -0.2886748 )
                  (  0.0000000  0.0000000  1.0000000 )       ( -1.3628500 )


      isym =  3     180 deg rotation - cart. axis [0,1,0]        

 cryst.   s( 3) = (    -1          0          0      )
                  (     1          1          0      )
                  (     0          0         -1      )

 cart.    s( 3) = ( -1.0000000  0.0000000  0.0000000 )
                  (  0.0000000  1.0000000  0.0000000 )
                  (  0.0000000  0.0000000 -1.0000000 )


      isym =  4     180 deg rotation - cart. axis [1,0,0]        

 cryst.   s( 4) = (     1          0          0      )    f =(  0.3333340 )
                  (    -1         -1          0      )       ( -0.3333330 )
                  (     0          0         -1      )       (  0.5000000 )

 cart.    s( 4) = (  1.0000000  0.0000000  0.0000000 )    f =(  0.5000005 )
                  (  0.0000000 -1.0000000  0.0000000 )       ( -0.2886748 )
                  (  0.0000000  0.0000000 -1.0000000 )       (  1.3628500 )


      isym =  5      60 deg rotation - cryst. axis [0,0,1]       

 cryst.   s( 5) = (     1          1          0      )    f =(  0.3333340 )
                  (    -1          0          0      )       ( -0.3333330 )
                  (     0          0          1      )       ( -0.5000000 )

 cart.    s( 5) = (  0.5000000 -0.8660254  0.0000000 )    f =(  0.5000005 )
                  (  0.8660254  0.5000000  0.0000000 )       ( -0.2886748 )
                  (  0.0000000  0.0000000  1.0000000 )       ( -1.3628500 )


      isym =  6      60 deg rotation - cryst. axis [0,0,-1]      

 cryst.   s( 6) = (     0         -1          0      )    f =(  0.3333330 )
                  (     1          1          0      )       ( -0.3333340 )
                  (     0          0          1      )       ( -0.5000000 )

 cart.    s( 6) = (  0.5000000  0.8660254  0.0000000 )    f =(  0.5000000 )
                  ( -0.8660254  0.5000000  0.0000000 )       ( -0.2886757 )
                  (  0.0000000  0.0000000  1.0000000 )       ( -1.3628500 )


      isym =  7     120 deg rotation - cryst. axis [0,0,1]       

 cryst.   s( 7) = (     0          1          0      )
                  (    -1         -1          0      )
                  (     0          0          1      )

 cart.    s( 7) = ( -0.5000000 -0.8660254  0.0000000 )
                  (  0.8660254 -0.5000000  0.0000000 )
                  (  0.0000000  0.0000000  1.0000000 )


      isym =  8     120 deg rotation - cryst. axis [0,0,-1]      

 cryst.   s( 8) = (    -1         -1          0      )
                  (     1          0          0      )
                  (     0          0          1      )

 cart.    s( 8) = ( -0.5000000  0.8660254  0.0000000 )
                  ( -0.8660254 -0.5000000  0.0000000 )
                  (  0.0000000  0.0000000  1.0000000 )


      isym =  9     180 deg rotation - cryst. axis [1,-1,0]      

 cryst.   s( 9) = (     0         -1          0      )
                  (    -1          0          0      )
                  (     0          0         -1      )

 cart.    s( 9) = (  0.5000000 -0.8660254  0.0000000 )
                  ( -0.8660254 -0.5000000  0.0000000 )
                  (  0.0000000  0.0000000 -1.0000000 )


      isym = 10     180 deg rotation - cryst. axis [2,1,0]       

 cryst.   s(10) = (     1          1          0      )
                  (     0         -1          0      )
                  (     0          0         -1      )

 cart.    s(10) = (  0.5000000  0.8660254  0.0000000 )
                  (  0.8660254 -0.5000000  0.0000000 )
                  (  0.0000000  0.0000000 -1.0000000 )


      isym = 11     180 deg rotation - cryst. axis [0,1,0]       

 cryst.   s(11) = (    -1         -1          0      )    f =(  0.3333330 )
                  (     0          1          0      )       ( -0.3333340 )
                  (     0          0         -1      )       (  0.5000000 )

 cart.    s(11) = ( -0.5000000 -0.8660254  0.0000000 )    f =(  0.5000000 )
                  ( -0.8660254  0.5000000  0.0000000 )       ( -0.2886757 )
                  (  0.0000000  0.0000000 -1.0000000 )       (  1.3628500 )


      isym = 12     180 deg rotation - cryst. axis [1,1,0]       

 cryst.   s(12) = (     0          1          0      )    f =(  0.3333330 )
                  (     1          0          0      )       ( -0.3333330 )
                  (     0          0         -1      )       (  0.5000000 )

 cart.    s(12) = ( -0.5000000  0.8660254  0.0000000 )    f =(  0.4999995 )
                  (  0.8660254  0.5000000  0.0000000 )       ( -0.2886748 )
                  (  0.0000000  0.0000000 -1.0000000 )       (  1.3628500 )


      isym = 13     inversion                                    

 cryst.   s(13) = (    -1          0          0      )    f =(  0.3333330 )
                  (     0         -1          0      )       ( -0.3333330 )
                  (     0          0         -1      )       (  0.5000000 )

 cart.    s(13) = ( -1.0000000  0.0000000  0.0000000 )    f =(  0.4999995 )
                  (  0.0000000 -1.0000000  0.0000000 )       ( -0.2886748 )
                  (  0.0000000  0.0000000 -1.0000000 )       (  1.3628500 )


      isym = 14     inv. 180 deg rotation - cart. axis [0,0,1]   

 cryst.   s(14) = (     1          0          0      )
                  (     0          1          0      )
                  (     0          0         -1      )

 cart.    s(14) = (  1.0000000  0.0000000  0.0000000 )
                  (  0.0000000  1.0000000  0.0000000 )
                  (  0.0000000  0.0000000 -1.0000000 )


      isym = 15     inv. 180 deg rotation - cart. axis [0,1,0]   

 cryst.   s(15) = (     1          0          0      )    f =(  0.3333340 )
                  (    -1         -1          0      )       ( -0.3333330 )
                  (     0          0          1      )       ( -0.5000000 )

 cart.    s(15) = (  1.0000000  0.0000000  0.0000000 )    f =(  0.5000005 )
                  (  0.0000000 -1.0000000  0.0000000 )       ( -0.2886748 )
                  (  0.0000000  0.0000000  1.0000000 )       ( -1.3628500 )


      isym = 16     inv. 180 deg rotation - cart. axis [1,0,0]   

 cryst.   s(16) = (    -1          0          0      )
                  (     1          1          0      )
                  (     0          0          1      )

 cart.    s(16) = ( -1.0000000  0.0000000  0.0000000 )
                  (  0.0000000  1.0000000  0.0000000 )
                  (  0.0000000  0.0000000  1.0000000 )


      isym = 17     inv.  60 deg rotation - cryst. axis [0,0,1]  

 cryst.   s(17) = (    -1         -1          0      )
                  (     1          0          0      )
                  (     0          0         -1      )

 cart.    s(17) = ( -0.5000000  0.8660254  0.0000000 )
                  ( -0.8660254 -0.5000000  0.0000000 )
                  (  0.0000000  0.0000000 -1.0000000 )


      isym = 18     inv.  60 deg rotation - cryst. axis [0,0,-1] 

 cryst.   s(18) = (     0          1          0      )
                  (    -1         -1          0      )
                  (     0          0         -1      )

 cart.    s(18) = ( -0.5000000 -0.8660254  0.0000000 )
                  (  0.8660254 -0.5000000  0.0000000 )
                  (  0.0000000  0.0000000 -1.0000000 )


      isym = 19     inv. 120 deg rotation - cryst. axis [0,0,1]  

 cryst.   s(19) = (     0         -1          0      )    f =(  0.3333330 )
                  (     1          1          0      )       ( -0.3333340 )
                  (     0          0         -1      )       (  0.5000000 )

 cart.    s(19) = (  0.5000000  0.8660254  0.0000000 )    f =(  0.5000000 )
                  ( -0.8660254  0.5000000  0.0000000 )       ( -0.2886757 )
                  (  0.0000000  0.0000000 -1.0000000 )       (  1.3628500 )


      isym = 20     inv. 120 deg rotation - cryst. axis [0,0,-1] 

 cryst.   s(20) = (     1          1          0      )    f =(  0.3333340 )
                  (    -1          0          0      )       ( -0.3333330 )
                  (     0          0         -1      )       (  0.5000000 )

 cart.    s(20) = (  0.5000000 -0.8660254  0.0000000 )    f =(  0.5000005 )
                  (  0.8660254  0.5000000  0.0000000 )       ( -0.2886748 )
                  (  0.0000000  0.0000000 -1.0000000 )       (  1.3628500 )


      isym = 21     inv. 180 deg rotation - cryst. axis [1,-1,0] 

 cryst.   s(21) = (     0          1          0      )    f =(  0.3333330 )
                  (     1          0          0      )       ( -0.3333330 )
                  (     0          0          1      )       ( -0.5000000 )

 cart.    s(21) = ( -0.5000000  0.8660254  0.0000000 )    f =(  0.4999995 )
                  (  0.8660254  0.5000000  0.0000000 )       ( -0.2886748 )
                  (  0.0000000  0.0000000  1.0000000 )       ( -1.3628500 )


      isym = 22     inv. 180 deg rotation - cryst. axis [2,1,0]  

 cryst.   s(22) = (    -1         -1          0      )    f =(  0.3333330 )
                  (     0          1          0      )       ( -0.3333340 )
                  (     0          0          1      )       ( -0.5000000 )

 cart.    s(22) = ( -0.5000000 -0.8660254  0.0000000 )    f =(  0.5000000 )
                  ( -0.8660254  0.5000000  0.0000000 )       ( -0.2886757 )
                  (  0.0000000  0.0000000  1.0000000 )       ( -1.3628500 )


      isym = 23     inv. 180 deg rotation - cryst. axis [0,1,0]  

 cryst.   s(23) = (     1          1          0      )
                  (     0         -1          0      )
                  (     0          0          1      )

 cart.    s(23) = (  0.5000000  0.8660254  0.0000000 )
                  (  0.8660254 -0.5000000  0.0000000 )
                  (  0.0000000  0.0000000  1.0000000 )


      isym = 24     inv. 180 deg rotation - cryst. axis [1,1,0]  

 cryst.   s(24) = (     0         -1          0      )
                  (    -1          0          0      )
                  (     0          0          1      )

 cart.    s(24) = (  0.5000000 -0.8660254  0.0000000 )
                  ( -0.8660254 -0.5000000  0.0000000 )
                  (  0.0000000  0.0000000  1.0000000 )


     point group D_6h(6/mmm)
     there are 12 classes
     the character table:

       E     2C6   2C3   C2    3C2'  3C2'' i     2S3   2S6   s_h   3s_d  3s_v 
A_1g   1.00  1.00  1.00  1.00  1.00  1.00  1.00  1.00  1.00  1.00  1.00  1.00
A_2g   1.00  1.00  1.00  1.00 -1.00 -1.00  1.00  1.00  1.00  1.00 -1.00 -1.00
B_1g   1.00 -1.00  1.00 -1.00  1.00 -1.00  1.00 -1.00  1.00 -1.00  1.00 -1.00
B_2g   1.00 -1.00  1.00 -1.00 -1.00  1.00  1.00 -1.00  1.00 -1.00 -1.00  1.00
E_1g   2.00  1.00 -1.00 -2.00  0.00  0.00  2.00  1.00 -1.00 -2.00  0.00  0.00
E_2g   2.00 -1.00 -1.00  2.00  0.00  0.00  2.00 -1.00 -1.00  2.00  0.00  0.00
A_1u   1.00  1.00  1.00  1.00  1.00  1.00 -1.00 -1.00 -1.00 -1.00 -1.00 -1.00
A_2u   1.00  1.00  1.00  1.00 -1.00 -1.00 -1.00 -1.00 -1.00 -1.00  1.00  1.00
B_1u   1.00 -1.00  1.00 -1.00  1.00 -1.00 -1.00  1.00 -1.00  1.00 -1.00  1.00
B_2u   1.00 -1.00  1.00 -1.00 -1.00  1.00 -1.00  1.00 -1.00  1.00  1.00 -1.00
E_1u   2.00  1.00 -1.00 -2.00  0.00  0.00 -2.00 -1.00  1.00  2.00  0.00  0.00
E_2u   2.00 -1.00 -1.00  2.00  0.00  0.00 -2.00  1.00  1.00 -2.00  0.00  0.00

     the symmetry operations in each class and the name of the first element:

     E        1
          identity                                               
     2C6      5    6
           60 deg rotation - cryst. axis [0,0,1]                 
     2C3      7    8
          120 deg rotation - cryst. axis [0,0,1]                 
     C2       2
          180 deg rotation - cart. axis [0,0,1]                  
     3C2'     4   12   11
          180 deg rotation - cart. axis [1,0,0]                  
     3C2''    3    9   10
          180 deg rotation - cart. axis [0,1,0]                  
     i       13
          inversion                                              
     2S3     17   18
          inv.  60 deg rotation - cryst. axis [0,0,1]            
     2S6     19   20
          inv. 120 deg rotation - cryst. axis [0,0,1]            
     s_h     14
          inv. 180 deg rotation - cart. axis [0,0,1]             
     3s_d    16   24   23
          inv. 180 deg rotation - cart. axis [1,0,0]             
     3s_v    15   21   22
          inv. 180 deg rotation - cart. axis [0,1,0]             

   Cartesian axes

     site n.     atom                  positions (alat units)
         1           B   tau(   1) = (   0.0000000   0.0000000   0.0000000  )
         2           N   tau(   2) = (   0.5000005   0.2886748   0.0000000  )
         3           N   tau(   3) = (   0.0000000   0.0000000   1.3628500  )
         4           B   tau(   4) = (   0.5000005   0.2886748   1.3628500  )

   Crystallographic axes

     site n.     atom                  positions (cryst. coord.)
         1           B   tau(   1) = (  0.0000000  0.0000000  0.0000000  )
         2           N   tau(   2) = (  0.6666670  0.3333330  0.0000000  )
         3           N   tau(   3) = (  0.0000000  0.0000000  0.5000000  )
         4           B   tau(   4) = (  0.6666670  0.3333330  0.5000000  )

     number of k points=    38  Marzari-Vanderbilt smearing, width (Ry)=  0.0050
                       cart. coord. in units 2pi/alat
        k(    1) = (   0.0000000   0.0000000   0.0000000), wk =   0.0046296
        k(    2) = (   0.0000000   0.0000000   0.1222927), wk =   0.0092593
        k(    3) = (   0.0000000   0.0962250   0.0000000), wk =   0.0277778
        k(    4) = (   0.0000000   0.0962250   0.1222927), wk =   0.0555556
        k(    5) = (   0.0000000   0.1924501   0.0000000), wk =   0.0277778
        k(    6) = (   0.0000000   0.1924501   0.1222927), wk =   0.0555556
        k(    7) = (   0.0000000   0.2886751   0.0000000), wk =   0.0277778
        k(    8) = (   0.0000000   0.2886751   0.1222927), wk =   0.0555556
        k(    9) = (   0.0000000   0.3849002   0.0000000), wk =   0.0277778
        k(   10) = (   0.0000000   0.3849002   0.1222927), wk =   0.0555556
        k(   11) = (   0.0000000   0.4811252   0.0000000), wk =   0.0277778
        k(   12) = (   0.0000000   0.4811252   0.1222927), wk =   0.0555556
        k(   13) = (   0.0000000  -0.5773503   0.0000000), wk =   0.0138889
        k(   14) = (   0.0000000  -0.5773503   0.1222927), wk =   0.0277778
        k(   15) = (   0.0833333   0.1443376   0.0000000), wk =   0.0277778
        k(   16) = (   0.0833333   0.1443376   0.1222927), wk =   0.0555556
        k(   17) = (   0.0833333   0.2405626   0.0000000), wk =   0.0555556
        k(   18) = (   0.0833333   0.2405626   0.1222927), wk =   0.1111111
        k(   19) = (   0.0833333   0.3367877   0.0000000), wk =   0.0555556
        k(   20) = (   0.0833333   0.3367877   0.1222927), wk =   0.1111111
        k(   21) = (   0.0833333   0.4330127   0.0000000), wk =   0.0555556
        k(   22) = (   0.0833333   0.4330127   0.1222927), wk =   0.1111111
        k(   23) = (   0.0833333   0.5292377   0.0000000), wk =   0.0555556
        k(   24) = (   0.0833333   0.5292377   0.1222927), wk =   0.1111111
        k(   25) = (   0.1666667   0.2886751   0.0000000), wk =   0.0277778
        k(   26) = (   0.1666667   0.2886751   0.1222927), wk =   0.0555556
        k(   27) = (   0.1666667   0.3849002   0.0000000), wk =   0.0555556
        k(   28) = (   0.1666667   0.3849002   0.1222927), wk =   0.1111111
        k(   29) = (   0.1666667   0.4811252   0.0000000), wk =   0.0555556
        k(   30) = (   0.1666667   0.4811252   0.1222927), wk =   0.1111111
        k(   31) = (   0.1666667   0.5773503   0.0000000), wk =   0.0277778
        k(   32) = (   0.1666667   0.5773503   0.1222927), wk =   0.0555556
        k(   33) = (   0.2500000   0.4330127   0.0000000), wk =   0.0277778
        k(   34) = (   0.2500000   0.4330127   0.1222927), wk =   0.0555556
        k(   35) = (   0.2500000   0.5292377   0.0000000), wk =   0.0555556
        k(   36) = (   0.2500000   0.5292377   0.1222927), wk =   0.1111111
        k(   37) = (   0.3333333   0.5773503   0.0000000), wk =   0.0092593
        k(   38) = (   0.3333333   0.5773503   0.1222927), wk =   0.0185185

                       cryst. coord.
        k(    1) = (   0.0000000   0.0000000   0.0000000), wk =   0.0046296
        k(    2) = (   0.0000000   0.0000000   0.3333333), wk =   0.0092593
        k(    3) = (   0.0000000   0.0833333   0.0000000), wk =   0.0277778
        k(    4) = (   0.0000000   0.0833333   0.3333333), wk =   0.0555556
        k(    5) = (   0.0000000   0.1666667   0.0000000), wk =   0.0277778
        k(    6) = (   0.0000000   0.1666667   0.3333333), wk =   0.0555556
        k(    7) = (   0.0000000   0.2500000   0.0000000), wk =   0.0277778
        k(    8) = (   0.0000000   0.2500000   0.3333333), wk =   0.0555556
        k(    9) = (   0.0000000   0.3333333   0.0000000), wk =   0.0277778
        k(   10) = (   0.0000000   0.3333333   0.3333333), wk =   0.0555556
        k(   11) = (   0.0000000   0.4166667   0.0000000), wk =   0.0277778
        k(   12) = (   0.0000000   0.4166667   0.3333333), wk =   0.0555556
        k(   13) = (   0.0000000  -0.5000000   0.0000000), wk =   0.0138889
        k(   14) = (   0.0000000  -0.5000000   0.3333333), wk =   0.0277778
        k(   15) = (   0.0833333   0.0833333   0.0000000), wk =   0.0277778
        k(   16) = (   0.0833333   0.0833333   0.3333333), wk =   0.0555556
        k(   17) = (   0.0833333   0.1666667   0.0000000), wk =   0.0555556
        k(   18) = (   0.0833333   0.1666667   0.3333333), wk =   0.1111111
        k(   19) = (   0.0833333   0.2500000   0.0000000), wk =   0.0555556
        k(   20) = (   0.0833333   0.2500000   0.3333333), wk =   0.1111111
        k(   21) = (   0.0833333   0.3333333   0.0000000), wk =   0.0555556
        k(   22) = (   0.0833333   0.3333333   0.3333333), wk =   0.1111111
        k(   23) = (   0.0833333   0.4166667   0.0000000), wk =   0.0555556
        k(   24) = (   0.0833333   0.4166667   0.3333333), wk =   0.1111111
        k(   25) = (   0.1666667   0.1666667   0.0000000), wk =   0.0277778
        k(   26) = (   0.1666667   0.1666667   0.3333333), wk =   0.0555556
        k(   27) = (   0.1666667   0.2500000   0.0000000), wk =   0.0555556
        k(   28) = (   0.1666667   0.2500000   0.3333333), wk =   0.1111111
        k(   29) = (   0.1666667   0.3333333   0.0000000), wk =   0.0555556
        k(   30) = (   0.1666667   0.3333333   0.3333333), wk =   0.1111111
        k(   31) = (   0.1666667   0.4166667   0.0000000), wk =   0.0277778
        k(   32) = (   0.1666667   0.4166667   0.3333333), wk =   0.0555556
        k(   33) = (   0.2500000   0.2500000   0.0000000), wk =   0.0277778
        k(   34) = (   0.2500000   0.2500000   0.3333333), wk =   0.0555556
        k(   35) = (   0.2500000   0.3333333   0.0000000), wk =   0.0555556
        k(   36) = (   0.2500000   0.3333333   0.3333333), wk =   0.1111111
        k(   37) = (   0.3333333   0.3333333   0.0000000), wk =   0.0092593
        k(   38) = (   0.3333333   0.3333333   0.3333333), wk =   0.0185185

     Dense  grid:    56215 G-vectors     FFT dimensions: (  36,  36, 100)

     Dynamical RAM for                 wfc:       0.16 MB

     Dynamical RAM for     wfc (w. buffer):       6.28 MB

     Dynamical RAM for           str. fact:       0.21 MB

     Dynamical RAM for           local pot:       0.00 MB

     Dynamical RAM for          nlocal pot:       0.43 MB

     Dynamical RAM for                qrad:       2.17 MB

     Dynamical RAM for          rho,v,vnew:       0.71 MB

     Dynamical RAM for               rhoin:       0.24 MB

     Dynamical RAM for            rho*nmix:       1.72 MB

     Dynamical RAM for           G-vectors:       0.46 MB

     Dynamical RAM for          h,s,v(r/c):       0.03 MB

     Dynamical RAM for          <psi|beta>:       0.01 MB

     Dynamical RAM for                 psi:       0.32 MB

     Dynamical RAM for                hpsi:       0.32 MB

     Dynamical RAM for      wfcinit/wfcrot:       0.44 MB

     Estimated static dynamical RAM per process >      11.45 MB

     Estimated max dynamical RAM per process >      13.84 MB

     Estimated total dynamical RAM >     110.75 MB

     Initial potential from superposition of free atoms

     starting charge      15.9995, renormalised to      16.0000


     %%%%%%%%%%%%%%%%%%%%%%%%%%%%%%%%%%%%%%%%%%%%%%%%%%%%%%%%%%%%%%%%%%%%%%%%
     %                                                                      %
     % You are using vdW-DF, which was implemented by the Thonhauser group. %
     % Please cite the following two papers that made this development      %
     % possible and the two reviews that describe the various versions:     %
     %                                                                      %
     %   T. Thonhauser et al., PRL 115, 136402 (2015).                      %
     %   T. Thonhauser et al., PRB 76, 125112 (2007).                       %
     %   K. Berland et al., Rep. Prog. Phys. 78, 066501 (2015).             %
     %   D.C. Langreth et al., J. Phys.: Condens. Matter 21, 084203 (2009). %
     %                                                                      %
     % If you are calculating stress with vdW-DF, please also cite:         %
     %                                                                      %
     %   R. Sabatini et al., J. Phys.: Condens. Matter 24, 424209 (2012).   %
     %                                                                      %
     %%%%%%%%%%%%%%%%%%%%%%%%%%%%%%%%%%%%%%%%%%%%%%%%%%%%%%%%%%%%%%%%%%%%%%%%

     %%%%%%%%%%%%%%%%%%%%%%%%%%%%%%%%%%%%%%%%%%%%%%%%%%%%%%%%%%%%%%%%%%%%%%%%
     %                                                                      %
     %  vdW-DF NEWS:                                                        %
     %                                                                      %
     %  * vdW-DF3 is now available. DOI: 10.1021/acs.jctc.0c00471           %
     %    use with input_dft = 'vdW-DF3-opt1' or 'vdW-DF3-opt2'             %
     %                                                                      %
     %  * Unscreened and range-separated hybrid vdW-DF-cx functionals       %
     %    DOI: 10.1063/1.4986522 and 10.1088/1361-648X/ac2ad2               %
     %    use with input_dft = 'vdW-DF-cx0'    and 'vdW-DF-ahcx'            %
     %  * Unscreened and range-separated hybrid vdW-DF2-b86r functionals    %
     %    DOI: 10.1063/1.4986522 and DOI: 10.1103/PhysRevX.12.041003        %
     %    use with input_dft = 'vdW-DF2-br0' and 'vdW-DF2-ahbr'             %
     %                                                                      %
     %%%%%%%%%%%%%%%%%%%%%%%%%%%%%%%%%%%%%%%%%%%%%%%%%%%%%%%%%%%%%%%%%%%%%%%%


     Carrying out vdW-DF run using the following parameters:
     Nqs    =  20  Npoints =  1024  r_max =  100.000
     q_mesh =  0.00001000  0.04494208  0.09755937  0.15916263
               0.23128650  0.31572767  0.41458969  0.53033537
               0.66584808  0.82450364  1.01025438  1.22772762
               1.48234092  1.78043706  2.12944203  2.53805004
               3.01644009  3.57652955  4.23227104  5.00000000


     -----------------------------------------------
     Non-local corr. energy    =       0.15809005 Ry
     -----------------------------------------------

     Starting wfcs are   16 randomized atomic wfcs

     total cpu time spent up to now is        9.3 secs

     Self-consistent Calculation

     iteration #  1     ecut=   140.00 Ry     beta= 0.70
     Davidson diagonalization with overlap

---- Real-time Memory Report at c_bands before calling an iterative solver
             0 MiB given to the printing process from OS
             0 MiB allocation reported by mallinfo(arena+hblkhd)
             0 MiB available memory on the node where the printing process lives
------------------
     ethr =  1.00E-02,  avg # of iterations =  3.6


     -----------------------------------------------
     Non-local corr. energy    =       0.19339775 Ry
     -----------------------------------------------


     total cpu time spent up to now is       10.4 secs

     total energy              =     -53.45967260 Ry
     estimated scf accuracy    <       0.75115013 Ry

     iteration #  2     ecut=   140.00 Ry     beta= 0.70
     Davidson diagonalization with overlap

---- Real-time Memory Report at c_bands before calling an iterative solver
             0 MiB given to the printing process from OS
             0 MiB allocation reported by mallinfo(arena+hblkhd)
             0 MiB available memory on the node where the printing process lives
------------------
     ethr =  4.69E-03,  avg # of iterations =  2.0


     -----------------------------------------------
     Non-local corr. energy    =       0.18654617 Ry
     -----------------------------------------------


     total cpu time spent up to now is       11.3 secs

     total energy              =     -53.65810165 Ry
     estimated scf accuracy    <       0.31580946 Ry

     iteration #  3     ecut=   140.00 Ry     beta= 0.70
     Davidson diagonalization with overlap

---- Real-time Memory Report at c_bands before calling an iterative solver
             0 MiB given to the printing process from OS
             0 MiB allocation reported by mallinfo(arena+hblkhd)
             0 MiB available memory on the node where the printing process lives
------------------
     ethr =  1.97E-03,  avg # of iterations =  1.5


     -----------------------------------------------
     Non-local corr. energy    =       0.18890079 Ry
     -----------------------------------------------


     total cpu time spent up to now is       12.0 secs

     total energy              =     -53.70891124 Ry
     estimated scf accuracy    <       0.00480560 Ry

     iteration #  4     ecut=   140.00 Ry     beta= 0.70
     Davidson diagonalization with overlap

---- Real-time Memory Report at c_bands before calling an iterative solver
             0 MiB given to the printing process from OS
             0 MiB allocation reported by mallinfo(arena+hblkhd)
             0 MiB available memory on the node where the printing process lives
------------------
     c_bands:  1 eigenvalues not converged
     ethr =  3.00E-05,  avg # of iterations =  8.9


     -----------------------------------------------
     Non-local corr. energy    =       0.18904390 Ry
     -----------------------------------------------


     total cpu time spent up to now is       14.0 secs

     total energy              =     -53.71249963 Ry
     estimated scf accuracy    <       0.00370586 Ry

     iteration #  5     ecut=   140.00 Ry     beta= 0.70
     Davidson diagonalization with overlap

---- Real-time Memory Report at c_bands before calling an iterative solver
             0 MiB given to the printing process from OS
             0 MiB allocation reported by mallinfo(arena+hblkhd)
             0 MiB available memory on the node where the printing process lives
------------------
     ethr =  2.32E-05,  avg # of iterations =  2.1


     -----------------------------------------------
     Non-local corr. energy    =       0.18900281 Ry
     -----------------------------------------------


     total cpu time spent up to now is       14.8 secs

     total energy              =     -53.71310599 Ry
     estimated scf accuracy    <       0.00003849 Ry

     iteration #  6     ecut=   140.00 Ry     beta= 0.70
     Davidson diagonalization with overlap

---- Real-time Memory Report at c_bands before calling an iterative solver
             0 MiB given to the printing process from OS
             0 MiB allocation reported by mallinfo(arena+hblkhd)
             0 MiB available memory on the node where the printing process lives
------------------
     c_bands:  1 eigenvalues not converged
     c_bands:  2 eigenvalues not converged
     ethr =  2.41E-07,  avg # of iterations =  7.6


     -----------------------------------------------
     Non-local corr. energy    =       0.18907204 Ry
     -----------------------------------------------


     total cpu time spent up to now is       16.4 secs

     total energy              =     -53.71315106 Ry
     estimated scf accuracy    <       0.00007082 Ry

     iteration #  7     ecut=   140.00 Ry     beta= 0.70
     Davidson diagonalization with overlap

---- Real-time Memory Report at c_bands before calling an iterative solver
             0 MiB given to the printing process from OS
             0 MiB allocation reported by mallinfo(arena+hblkhd)
             0 MiB available memory on the node where the printing process lives
------------------
     c_bands:  1 eigenvalues not converged
     ethr =  2.41E-07,  avg # of iterations =  2.6


     -----------------------------------------------
     Non-local corr. energy    =       0.18905313 Ry
     -----------------------------------------------


     total cpu time spent up to now is       17.3 secs

     End of self-consistent calculation

          k = 0.0000 0.0000 0.0000 (  7003 PWs)   bands (ev):

   -13.3865 -13.1427  -1.8040   0.1122   2.9582   2.9582   2.9863   2.9863
     9.1403  14.0851  15.9695  15.9696

     occupation numbers 
     1.0000   1.0000   1.0000   1.0000   1.0000   1.0000   1.0000   1.0000
     0.0000   0.0000   0.0000   0.0000

          k = 0.0000 0.0000 0.1223 (  7020 PWs)   bands (ev):

   -13.3280 -13.2062  -1.3979  -0.4585   2.9652   2.9652   2.9792   2.9793
    10.2601  12.6075  15.9938  16.0159

     occupation numbers 
     1.0000   1.0000   1.0000   1.0000   1.0000   1.0000   1.0000   1.0000
     0.0000   0.0000   0.0000   0.0000

          k = 0.0000 0.0962 0.0000 (  6985 PWs)   bands (ev):

   -13.2517 -13.0118  -1.6175   0.2808   2.4077   2.4298   2.7007   2.7322
     9.3868  14.0363  15.7754  15.9754

     occupation numbers 
     1.0000   1.0000   1.0000   1.0000   1.0000   1.0000   1.0000   1.0000
     0.0000   0.0000   0.0000   0.0000

          k = 0.0000 0.0962 0.1223 (  7009 PWs)   bands (ev):

   -13.1941 -13.0742  -1.2153  -0.2850   2.4155   2.4278   2.7085   2.7243
    10.4789  12.7292  15.8649  15.9519

     occupation numbers 
     1.0000   1.0000   1.0000   1.0000   1.0000   1.0000   1.0000   1.0000
     0.0000   0.0000   0.0000   0.0000

          k = 0.0000 0.1925 0.0000 (  7023 PWs)   bands (ev):

   -12.8544 -12.6265  -1.0651   0.7764   1.0087   1.0353   2.0734   2.1114
    10.0404  13.7642  15.3714  15.4449

     occupation numbers 
     1.0000   1.0000   1.0000   1.0000   1.0000   1.0000   1.0000   1.0000
     0.0000   0.0000   0.0000   0.0000

          k = 0.0000 0.1925 0.1223 (  7013 PWs)   bands (ev):

   -12.7996 -12.6857  -0.6776   0.2163   1.0244   1.0481   2.0828   2.1019
    11.0367  12.9134  15.4548  15.5221

     occupation numbers 
     1.0000   1.0000   1.0000   1.0000   1.0000   1.0000   1.0000   1.0000
     0.0000   0.0000   0.0000   0.0000

          k = 0.0000 0.2887 0.0000 (  7047 PWs)   bands (ev):

   -12.2215 -12.0147  -0.7711  -0.7270  -0.1722   1.3456   1.3894   1.5620
    10.9980  12.9305  13.6128  14.9654

     occupation numbers 
     1.0000   1.0000   1.0000   1.0000   1.0000   1.0000   1.0000   1.0000
     0.0000   0.0000   0.0000   0.0000

          k = 0.0000 0.2887 0.1223 (  7005 PWs)   bands (ev):

   -12.1715 -12.0682  -0.7742  -0.7470   0.2195   1.0688   1.3565   1.3784
    11.6872  12.6324  14.0429  14.8782

     occupation numbers 
     1.0000   1.0000   1.0000   1.0000   1.0000   1.0000   1.0000   1.0000
     0.0000   0.0000   0.0000   0.0000

          k = 0.0000 0.3849 0.0000 (  7024 PWs)   bands (ev):

   -11.4200 -11.2470  -2.5455  -2.4834   0.7200   0.7677   0.9962   2.5428
    11.2160  11.9280  12.1755  14.6403

     occupation numbers 
     1.0000   1.0000   1.0000   1.0000   1.0000   1.0000   1.0000   1.0000
     0.0000   0.0000   0.0000   0.0000

          k = 0.0000 0.3849 0.1223 (  7034 PWs)   bands (ev):

   -11.3779 -11.2914  -2.5338  -2.5025   0.7319   0.7557   1.3440   2.1098
    11.1647  11.5141  13.4404  14.5314

     occupation numbers 
     1.0000   1.0000   1.0000   1.0000   1.0000   1.0000   1.0000   1.0000
     0.0000   0.0000   0.0000   0.0000

          k = 0.0000 0.4811 0.0000 (  7010 PWs)   bands (ev):

   -10.6215 -10.5044  -3.9599  -3.8945   0.3094   0.3594   2.2509   3.4669
     9.4202  10.5254  13.3173  14.4345

     occupation numbers 
     1.0000   1.0000   1.0000   1.0000   1.0000   1.0000   1.0000   1.0000
     0.0000   0.0000   0.0000   0.0000

          k = 0.0000 0.4811 0.1223 (  7032 PWs)   bands (ev):

   -10.5927 -10.5341  -3.9467  -3.9140   0.3218   0.3468   2.5396   3.1475
     9.5637  10.1093  13.9160  14.3907

     occupation numbers 
     1.0000   1.0000   1.0000   1.0000   1.0000   1.0000   1.0000   1.0000
     0.0000   0.0000   0.0000   0.0000

          k = 0.0000-0.5774 0.0000 (  7032 PWs)   bands (ev):

   -10.2294 -10.1719  -4.5386  -4.4848   0.1673   0.2180   2.9481   3.8364
     8.6200   9.8738  13.8068  14.3646

     occupation numbers 
     1.0000   1.0000   1.0000   1.0000   1.0000   1.0000   1.0000   1.0000
     0.0000   0.0000   0.0000   0.0000

          k = 0.0000-0.5774 0.1223 (  7032 PWs)   bands (ev):

   -10.2149 -10.1861  -4.5285  -4.5016   0.1799   0.2053   3.1774   3.6266
     8.7891   9.4100  14.1005  14.3467

     occupation numbers 
     1.0000   1.0000   1.0000   1.0000   1.0000   1.0000   1.0000   1.0000
     0.0000   0.0000   0.0000   0.0000

          k = 0.0833 0.1443 0.0000 (  6991 PWs)   bands (ev):

   -12.9855 -12.7536  -1.2480   0.6131   1.5045   1.5155   2.1939   2.2264
     9.8391  13.8793  15.8772  15.9728

     occupation numbers 
     1.0000   1.0000   1.0000   1.0000   1.0000   1.0000   1.0000   1.0000
     0.0000   0.0000   0.0000   0.0000

          k = 0.0833 0.1443 0.1223 (  7009 PWs)   bands (ev):

   -12.9297 -12.8138  -0.8547   0.0550   1.5131   1.5236   2.2022   2.2183
    10.8722  12.8923  15.9094  15.9622

     occupation numbers 
     1.0000   1.0000   1.0000   1.0000   1.0000   1.0000   1.0000   1.0000
     0.0000   0.0000   0.0000   0.0000

          k = 0.0833 0.2406 0.0000 (  7016 PWs)   bands (ev):

   -12.4692 -12.2536  -0.5241   0.0232   0.0479   1.2555   1.4050   1.4454
    10.6607  13.3537  14.3205  15.6849

     occupation numbers 
     1.0000   1.0000   1.0000   1.0000   1.0000   1.0000   1.0000   1.0000
     0.0000   0.0000   0.0000   0.0000

          k = 0.0833 0.2406 0.1223 (  7005 PWs)   bands (ev):

   -12.4172 -12.3095  -0.2012   0.0176   0.0933   0.7581   1.4167   1.4364
    11.5164  12.8748  14.6828  15.5666

     occupation numbers 
     1.0000   1.0000   1.0000   1.0000   1.0000   1.0000   1.0000   1.0000
     0.0000   0.0000   0.0000   0.0000

          k = 0.0833 0.3368 0.0000 (  7022 PWs)   bands (ev):

   -11.7458 -11.5571  -1.6926  -1.6445   0.5130   0.6580   0.7055   2.1480
    11.7734  12.1244  12.5634  15.3557

     occupation numbers 
     1.0000   1.0000   1.0000   1.0000   1.0000   1.0000   1.0000   1.0000
     0.0000   0.0000   0.0000   0.0000

          k = 0.0833 0.3368 0.1223 (  7021 PWs)   bands (ev):

   -11.7000 -11.6057  -1.6858  -1.6610   0.6642   0.6899   0.8858   1.6874
    11.7533  12.0875  13.5727  15.1521

     occupation numbers 
     1.0000   1.0000   1.0000   1.0000   1.0000   1.0000   1.0000   1.0000
     0.0000   0.0000   0.0000   0.0000

          k = 0.0833 0.4330 0.0000 (  7037 PWs)   bands (ev):

   -10.9228 -10.7773  -3.2779  -3.2141   0.1062   0.1581   1.7550   3.1359
    10.2707  11.1036  13.0632  15.0937

     occupation numbers 
     1.0000   1.0000   1.0000   1.0000   1.0000   1.0000   1.0000   1.0000
     0.0000   0.0000   0.0000   0.0000

          k = 0.0833 0.4330 0.1223 (  7033 PWs)   bands (ev):

   -10.8872 -10.8145  -3.2650  -3.2330   0.1183   0.1443   2.0739   2.7608
    10.3392  10.7549  14.0304  14.9920

     occupation numbers 
     1.0000   1.0000   1.0000   1.0000   1.0000   1.0000   1.0000   1.0000
     0.0000   0.0000   0.0000   0.0000

          k = 0.0833 0.5292 0.0000 (  7048 PWs)   bands (ev):

   -10.2706 -10.1928  -4.3121  -4.2522  -0.1831  -0.1292   2.8566   3.8279
     8.8955  10.0143  14.1207  14.9531

     occupation numbers 
     1.0000   1.0000   1.0000   1.0000   1.0000   1.0000   1.0000   1.0000
     0.0000   0.0000   0.0000   0.0000

          k = 0.0833 0.5292 0.1223 (  7029 PWs)   bands (ev):

   -10.2512 -10.2123  -4.3002  -4.2703  -0.1702  -0.1432   3.1019   3.5913
     9.0418   9.5980  14.5601  14.9220

     occupation numbers 
     1.0000   1.0000   1.0000   1.0000   1.0000   1.0000   1.0000   1.0000
     0.0000   0.0000   0.0000   0.0000

          k = 0.1667 0.2887 0.0000 (  7027 PWs)   bands (ev):

   -11.8584 -11.6646  -1.1716  -1.1671   0.3480   0.3937   0.4373   2.0107
    11.6649  12.5476  12.7935  16.6136

     occupation numbers 
     1.0000   1.0000   1.0000   1.0000   1.0000   1.0000   1.0000   1.0000
     0.0000   0.0000   0.0000   0.0000

          k = 0.1667 0.2887 0.1223 (  7016 PWs)   bands (ev):

   -11.8115 -11.7146  -1.1774  -1.1734   0.4013   0.4168   0.7297   1.5430
    11.9138  12.3356  13.7660  15.9960

     occupation numbers 
     1.0000   1.0000   1.0000   1.0000   1.0000   1.0000   1.0000   1.0000
     0.0000   0.0000   0.0000   0.0000

          k = 0.1667 0.3849 0.0000 (  7040 PWs)   bands (ev):

   -11.0927 -10.9332  -2.5320  -2.4951  -0.4709  -0.4207   1.4832   2.9428
    11.0654  11.4381  12.9696  16.6339

     occupation numbers 
     1.0000   1.0000   1.0000   1.0000   1.0000   1.0000   1.0000   1.0000
     0.0000   0.0000   0.0000   0.0000

          k = 0.1667 0.3849 0.1223 (  7044 PWs)   bands (ev):

   -11.0538 -10.9741  -2.5256  -2.5071  -0.4604  -0.4354   1.8176   2.5418
    10.9872  11.2141  14.1956  16.1661

     occupation numbers 
     1.0000   1.0000   1.0000   1.0000   1.0000   1.0000   1.0000   1.0000
     0.0000   0.0000   0.0000   0.0000

          k = 0.1667 0.4811 0.0000 (  7040 PWs)   bands (ev):

   -10.3438 -10.2389  -3.7245  -3.6638  -0.9932  -0.9361   2.6961   3.7975
     9.5338  10.2801  14.4373  16.4352

     occupation numbers 
     1.0000   1.0000   1.0000   1.0000   1.0000   1.0000   1.0000   1.0000
     0.0000   0.0000   0.0000   0.0000

          k = 0.1667 0.4811 0.1223 (  7046 PWs)   bands (ev):

   -10.3179 -10.2654  -3.7118  -3.6814  -0.9805  -0.9520   2.9658   3.5181
     9.6041   9.9838  15.2525  16.2705

     occupation numbers 
     1.0000   1.0000   1.0000   1.0000   1.0000   1.0000   1.0000   1.0000
     0.0000   0.0000   0.0000   0.0000

          k = 0.1667 0.5774 0.0000 (  7063 PWs)   bands (ev):

    -9.9841  -9.9345  -4.2290  -4.1641  -1.1653  -1.1058   3.3761   4.1120
     8.8576   9.7207  15.4003  16.3577

     occupation numbers 
     1.0000   1.0000   1.0000   1.0000   1.0000   1.0000   1.0000   1.0000
     0.0000   0.0000   0.0000   0.0000

          k = 0.1667 0.5774 0.1223 (  7048 PWs)   bands (ev):

    -9.9716  -9.9468  -4.2155  -4.1830  -1.1519  -1.1221   3.5782   3.9518
     8.9438   9.3782  15.8870  16.3159

     occupation numbers 
     1.0000   1.0000   1.0000   1.0000   1.0000   1.0000   1.0000   1.0000
     0.0000   0.0000   0.0000   0.0000

          k = 0.2500 0.4330 0.0000 (  7043 PWs)   bands (ev):

   -10.3775 -10.2625  -3.2547  -3.2226  -1.5437  -1.5018   2.6242   3.7782
     9.9461  10.3721  14.4595  16.4742

     occupation numbers 
     1.0000   1.0000   1.0000   1.0000   1.0000   1.0000   1.0000   1.0000
     0.0000   0.0000   0.0000   0.0000

          k = 0.2500 0.4330 0.1223 (  7057 PWs)   bands (ev):

   -10.3492 -10.2917  -3.2483  -3.2324  -1.5357  -1.5148   2.9035   3.4812
     9.9376  10.1718  15.3558  16.4332

     occupation numbers 
     1.0000   1.0000   1.0000   1.0000   1.0000   1.0000   1.0000   1.0000
     0.0000   0.0000   0.0000   0.0000

          k = 0.2500 0.5292 0.0000 (  7061 PWs)   bands (ev):

    -9.8431  -9.7895  -3.7898  -3.7123  -2.1506  -2.1036   3.6327   4.2792
     9.1397   9.5894  15.6210  16.0349

     occupation numbers 
     1.0000   1.0000   1.0000   1.0000   1.0000   1.0000   1.0000   1.0000
     0.0000   0.0000   0.0000   0.0000

          k = 0.2500 0.5292 0.1223 (  7059 PWs)   bands (ev):

    -9.8296  -9.8028  -3.7719  -3.7332  -2.1415  -2.1180   3.8179   4.1464
     9.1281   9.3617  16.0076  16.5304

     occupation numbers 
     1.0000   1.0000   1.0000   1.0000   1.0000   1.0000   1.0000   1.0000
     0.0000   0.0000   0.0000   0.0000

          k = 0.3333 0.5774 0.0000 (  7071 PWs)   bands (ev):

    -9.6243  -9.6243  -3.6081  -3.4763  -2.7998  -2.7998   4.2535   4.2535
     9.1667   9.1667  15.0069  17.3164

     occupation numbers 
     1.0000   1.0000   1.0000   1.0000   1.0000   1.0000   1.0000   1.0000
     0.0000   0.0000   0.0000   0.0000

          k = 0.3333 0.5774 0.1223 (  7062 PWs)   bands (ev):

    -9.6242  -9.6242  -3.5757  -3.5098  -2.8034  -2.8034   4.2983   4.2983
     9.0343   9.0343  15.5324  16.9332

     occupation numbers 
     1.0000   1.0000   1.0000   1.0000   1.0000   1.0000   1.0000   1.0000
     0.0000   0.0000   0.0000   0.0000

     the Fermi energy is     5.9729 ev

!    total energy              =     -53.71316200 Ry
     estimated scf accuracy    <       0.00000052 Ry
     smearing contrib. (-TS)   =       0.00000000 Ry
     internal energy E=F+TS    =     -53.71316200 Ry

     The total energy is F=E-TS. E is the sum of the following terms:
     one-electron contribution =     -18.05555173 Ry
     hartree contribution      =      17.20518602 Ry
     xc contribution           =     -17.40046234 Ry
     ewald contribution        =     -35.46233395 Ry

     convergence has been achieved in   7 iterations


     -----------------------------------------------
     Non-local corr. energy    =       0.18905313 Ry
     -----------------------------------------------


     Forces acting on atoms (cartesian axes, Ry/au):

     atom    1 type  1   force =     0.00000000   -0.00000000    0.00000000
     atom    2 type  2   force =     0.00000000    0.00000000    0.00000000
     atom    3 type  2   force =    -0.00000000   -0.00000000    0.00000000
     atom    4 type  1   force =     0.00000000    0.00000000    0.00000000
     The non-local contrib.  to forces
     atom    1 type  1   force =     0.00000000   -0.00000000    0.00000000
     atom    2 type  2   force =     0.00000000    0.00000000    0.00000000
     atom    3 type  2   force =     0.00000000   -0.00000000    0.00000000
     atom    4 type  1   force =     0.00000000   -0.00000000    0.00000000
     The ionic contribution  to forces
     atom    1 type  1   force =     0.00000773   -0.00000446   -0.00000000
     atom    2 type  2   force =    -0.00000774    0.00000447   -0.00000000
     atom    3 type  2   force =     0.00000774   -0.00000447    0.00000000
     atom    4 type  1   force =    -0.00000773    0.00000446    0.00000000
     The local contribution  to forces
     atom    1 type  1   force =    -0.00000000   -0.00000000    0.00000000
     atom    2 type  2   force =    -0.00003347    0.00001932    0.00000000
     atom    3 type  2   force =     0.00000000    0.00000000    0.00000000
     atom    4 type  1   force =     0.00000419   -0.00000242    0.00000000
     The core correction contribution to forces
     atom    1 type  1   force =    -0.00000001   -0.00000001    0.00000000
     atom    2 type  2   force =     0.00000138   -0.00000082   -0.00000000
     atom    3 type  2   force =    -0.00000001   -0.00000002   -0.00000000
     atom    4 type  1   force =     0.00000025   -0.00000016    0.00000000
     The Hubbard contrib.    to forces
     atom    1 type  1   force =     0.00000000    0.00000000    0.00000000
     atom    2 type  2   force =     0.00000000    0.00000000    0.00000000
     atom    3 type  2   force =     0.00000000    0.00000000    0.00000000
     atom    4 type  1   force =     0.00000000    0.00000000    0.00000000
     The SCF correction term to forces
     atom    1 type  1   force =    -0.00000000    0.00000000   -0.00000000
     atom    2 type  2   force =    -0.00000000    0.00000000   -0.00000000
     atom    3 type  2   force =    -0.00000000    0.00000000   -0.00000000
     atom    4 type  1   force =     0.00000000   -0.00000000   -0.00000000

     Total force =     0.000000     Total SCF correction =     0.000000


     Computing stress (Cartesian axis) and pressure



     -----------------------------------------------
     Non-local corr. energy    =       0.18905313 Ry
     -----------------------------------------------

          total   stress  (Ry/bohr**3)                   (kbar)     P=        9.42
   0.00014234   0.00000000   0.00000000           20.94        0.00        0.00
   0.00000000   0.00014234  -0.00000000            0.00       20.94       -0.00
   0.00000000  -0.00000000  -0.00009250            0.00       -0.00      -13.61

     kinetic stress (kbar)  14172.70      0.00      0.00
                                0.00  14172.70      0.00
                                0.00      0.00  15408.70

     local   stress (kbar) -19069.43      0.01     -0.00
                                0.01 -19069.42     -0.00
                               -0.00     -0.00  21068.70

     nonloc. stress (kbar)  -2337.43     -0.00      0.00
                               -0.00  -2337.43      0.00
                                0.00      0.00  -2255.55

     hartree stress (kbar)   7619.79     -0.00     -0.00
                               -0.00   7619.79      0.00
                               -0.00      0.00  -5171.58

     exc-cor stress (kbar)  -1423.87     -0.00      0.00
                               -0.00  -1423.87      0.00
                                0.00      0.00  -1558.67

     corecor stress (kbar)  -1589.74      0.00     -0.00
                                0.00  -1589.74     -0.00
                               -0.00     -0.00  -1554.87

     ewald   stress (kbar)   2635.13     -0.02     -0.00
                               -0.02   2635.11     -0.00
                               -0.00     -0.00 -26021.82

     hubbard stress (kbar)      0.00      0.00      0.00
                                0.00      0.00      0.00
                                0.00      0.00      0.00

     DFT-D   stress (kbar)      0.00      0.00      0.00
                                0.00      0.00      0.00
                                0.00      0.00      0.00

     XDM     stress (kbar)      0.00      0.00      0.00
                                0.00      0.00      0.00
                                0.00      0.00      0.00

     dft-nl  stress (kbar)     13.79      0.00     -0.00
                                0.00     13.79     -0.00
                               -0.00     -0.00     71.50

     TS-vdW  stress (kbar)      0.00      0.00      0.00
                                0.00      0.00      0.00
                                0.00      0.00      0.00

     MDB     stress (kbar)      0.00      0.00      0.00
                                0.00      0.00      0.00
                                0.00      0.00      0.00

     3D-RISM stress (kbar)      0.00      0.00      0.00
                                0.00      0.00      0.00
                                0.00      0.00      0.00


     BFGS Geometry Optimization
     Energy error            =      0.0E+00 Ry
     Gradient error          =      9.0E-22 Ry/Bohr
     Cell gradient error     =      2.1E+01 kbar

     number of scf cycles    =   1
     number of bfgs steps    =   0

     enthalpy           new  =     -53.7131619990 Ry

     new trust radius        =       0.0112837897 bohr
     new conv_thr            =       0.0000010000 Ry

     new unit-cell volume =    252.59432 a.u.^3 (    37.43062 Ang^3 )
     density =      2.12943 g/cm^3

CELL_PARAMETERS (alat=  4.74000000)
   1.003558387   0.000000000   0.000000000
  -0.501779193   0.869107057  -0.000000000
   0.000000000  -0.000000000   2.719397143

ATOMIC_POSITIONS (crystal)
B             0.0000000000        0.0000000000        0.0000000000    0   0   0
N             0.6666670000        0.3333330000        0.0000000000    0   0   0
N            -0.0000000000       -0.0000000000        0.5000000000
B             0.6666670000        0.3333330000        0.5000000000



     Writing config-only to output data dir ./tmp/BNBULK_AA1_PBE_vdW.save/
     NEW-OLD atomic charge density approx. for the potential


     -----------------------------------------------
     Non-local corr. energy    =       0.18972324 Ry
     -----------------------------------------------

     extrapolated charge   16.07644, renormalised to   16.00000

     total cpu time spent up to now is       19.9 secs

     Self-consistent Calculation

     iteration #  1     ecut=   140.00 Ry     beta= 0.70
     Davidson diagonalization with overlap

---- Real-time Memory Report at c_bands before calling an iterative solver
             0 MiB given to the printing process from OS
             0 MiB allocation reported by mallinfo(arena+hblkhd)
             0 MiB available memory on the node where the printing process lives
------------------
     ethr =  1.00E-06,  avg # of iterations =  3.2


     -----------------------------------------------
     Non-local corr. energy    =       0.18802743 Ry
     -----------------------------------------------


     total cpu time spent up to now is       21.1 secs

     total energy              =     -53.71232492 Ry
     estimated scf accuracy    <       0.00072174 Ry

     iteration #  2     ecut=   140.00 Ry     beta= 0.70
     Davidson diagonalization with overlap

---- Real-time Memory Report at c_bands before calling an iterative solver
             0 MiB given to the printing process from OS
             0 MiB allocation reported by mallinfo(arena+hblkhd)
             0 MiB available memory on the node where the printing process lives
------------------
     ethr =  4.51E-06,  avg # of iterations =  3.2


     -----------------------------------------------
     Non-local corr. energy    =       0.18859426 Ry
     -----------------------------------------------


     total cpu time spent up to now is       22.3 secs

     total energy              =     -53.71320997 Ry
     estimated scf accuracy    <       0.00194097 Ry

     iteration #  3     ecut=   140.00 Ry     beta= 0.70
     Davidson diagonalization with overlap

---- Real-time Memory Report at c_bands before calling an iterative solver
             0 MiB given to the printing process from OS
             0 MiB allocation reported by mallinfo(arena+hblkhd)
             0 MiB available memory on the node where the printing process lives
------------------
     ethr =  4.51E-06,  avg # of iterations =  1.6


     -----------------------------------------------
     Non-local corr. energy    =       0.18895477 Ry
     -----------------------------------------------


     total cpu time spent up to now is       23.1 secs

     total energy              =     -53.71316014 Ry
     estimated scf accuracy    <       0.00036090 Ry

     iteration #  4     ecut=   140.00 Ry     beta= 0.70
     Davidson diagonalization with overlap

---- Real-time Memory Report at c_bands before calling an iterative solver
             0 MiB given to the printing process from OS
             0 MiB allocation reported by mallinfo(arena+hblkhd)
             0 MiB available memory on the node where the printing process lives
------------------
     ethr =  2.26E-06,  avg # of iterations =  2.0


     -----------------------------------------------
     Non-local corr. energy    =       0.18895619 Ry
     -----------------------------------------------


     total cpu time spent up to now is       24.1 secs

     total energy              =     -53.71325193 Ry
     estimated scf accuracy    <       0.00000321 Ry

     iteration #  5     ecut=   140.00 Ry     beta= 0.70
     Davidson diagonalization with overlap

---- Real-time Memory Report at c_bands before calling an iterative solver
             0 MiB given to the printing process from OS
             0 MiB allocation reported by mallinfo(arena+hblkhd)
             0 MiB available memory on the node where the printing process lives
------------------
     ethr =  2.01E-08,  avg # of iterations =  4.1


     -----------------------------------------------
     Non-local corr. energy    =       0.18901105 Ry
     -----------------------------------------------


     total cpu time spent up to now is       25.1 secs

     total energy              =     -53.71325483 Ry
     estimated scf accuracy    <       0.00000314 Ry

     iteration #  6     ecut=   140.00 Ry     beta= 0.70
     Davidson diagonalization with overlap

---- Real-time Memory Report at c_bands before calling an iterative solver
             0 MiB given to the printing process from OS
             0 MiB allocation reported by mallinfo(arena+hblkhd)
             0 MiB available memory on the node where the printing process lives
------------------
     ethr =  1.97E-08,  avg # of iterations =  2.1


     -----------------------------------------------
     Non-local corr. energy    =       0.18908233 Ry
     -----------------------------------------------


     total cpu time spent up to now is       26.0 secs

     total energy              =     -53.71325282 Ry
     estimated scf accuracy    <       0.00000916 Ry

     iteration #  7     ecut=   140.00 Ry     beta= 0.70
     Davidson diagonalization with overlap

---- Real-time Memory Report at c_bands before calling an iterative solver
             0 MiB given to the printing process from OS
             0 MiB allocation reported by mallinfo(arena+hblkhd)
             0 MiB available memory on the node where the printing process lives
------------------
     ethr =  1.97E-08,  avg # of iterations =  2.0


     -----------------------------------------------
     Non-local corr. energy    =       0.18907426 Ry
     -----------------------------------------------


     total cpu time spent up to now is       26.9 secs

     total energy              =     -53.71325332 Ry
     estimated scf accuracy    <       0.00000135 Ry

     iteration #  8     ecut=   140.00 Ry     beta= 0.70
     Davidson diagonalization with overlap

---- Real-time Memory Report at c_bands before calling an iterative solver
             0 MiB given to the printing process from OS
             0 MiB allocation reported by mallinfo(arena+hblkhd)
             0 MiB available memory on the node where the printing process lives
------------------
     ethr =  8.44E-09,  avg # of iterations =  1.2


     -----------------------------------------------
     Non-local corr. energy    =       0.18906848 Ry
     -----------------------------------------------


     total cpu time spent up to now is       27.6 secs

     End of self-consistent calculation

          k = 0.0000 0.0000 0.0000 (  7003 PWs)   bands (ev):

   -13.3632 -13.1141  -1.7983   0.1461   2.9094   2.9095   2.9388   2.9389
     9.1208  14.0500  15.8397  15.8407

     occupation numbers 
     1.0000   1.0000   1.0000   1.0000   1.0000   1.0000   1.0000   1.0000
     0.0000   0.0000   0.0000   0.0000

          k =-0.0000 0.0000 0.1226 (  7020 PWs)   bands (ev):

   -13.3035 -13.1791  -1.3869  -0.4341   2.9168   2.9168   2.9315   2.9315
    10.2440  12.5832  15.8660  15.8875

     occupation numbers 
     1.0000   1.0000   1.0000   1.0000   1.0000   1.0000   1.0000   1.0000
     0.0000   0.0000   0.0000   0.0000

          k =-0.0000 0.0959 0.0000 (  6985 PWs)   bands (ev):

   -13.2294 -12.9843  -1.6134   0.3129   2.3613   2.3847   2.6548   2.6876
     9.3674  13.9932  15.6364  15.8446

     occupation numbers 
     1.0000   1.0000   1.0000   1.0000   1.0000   1.0000   1.0000   1.0000
     0.0000   0.0000   0.0000   0.0000

          k =-0.0000 0.0959 0.1226 (  7009 PWs)   bands (ev):

   -13.1706 -13.0481  -1.2059  -0.2623   2.3695   2.3826   2.6629   2.6794
    10.4624  12.7023  15.7325  15.8226

     occupation numbers 
     1.0000   1.0000   1.0000   1.0000   1.0000   1.0000   1.0000   1.0000
     0.0000   0.0000   0.0000   0.0000

          k =-0.0000 0.1918 0.0000 (  7023 PWs)   bands (ev):

   -12.8352 -12.6024  -1.0656   0.8030   0.9694   0.9976   2.0341   2.0737
    10.0185  13.7006  15.2281  15.3077

     occupation numbers 
     1.0000   1.0000   1.0000   1.0000   1.0000   1.0000   1.0000   1.0000
     0.0000   0.0000   0.0000   0.0000

          k =-0.0000 0.1918 0.1226 (  7013 PWs)   bands (ev):

   -12.7792 -12.6629  -0.6733   0.2320   0.9861   1.0121   2.0439   2.0638
    11.0148  12.8709  15.3137  15.3828

     occupation numbers 
     1.0000   1.0000   1.0000   1.0000   1.0000   1.0000   1.0000   1.0000
     0.0000   0.0000   0.0000   0.0000

          k =-0.0000 0.2877 0.0000 (  7047 PWs)   bands (ev):

   -12.2075 -11.9962  -0.7993  -0.7532  -0.1802   1.3136   1.3592   1.5794
    10.9664  12.8482  13.4988  14.8183

     occupation numbers 
     1.0000   1.0000   1.0000   1.0000   1.0000   1.0000   1.0000   1.0000
     0.0000   0.0000   0.0000   0.0000

          k =-0.0000 0.2877 0.1226 (  7005 PWs)   bands (ev):

   -12.1565 -12.0509  -0.8021  -0.7739   0.2169   1.0783   1.3250   1.3477
    11.6433  12.5605  13.9333  14.7397

     occupation numbers 
     1.0000   1.0000   1.0000   1.0000   1.0000   1.0000   1.0000   1.0000
     0.0000   0.0000   0.0000   0.0000

          k =-0.0000 0.3835 0.0000 (  7024 PWs)   bands (ev):

   -11.4134 -11.2365  -2.5605  -2.4961   0.6940   0.7437   0.9780   2.5472
    11.1293  11.8472  12.1218  14.4892

     occupation numbers 
     1.0000   1.0000   1.0000   1.0000   1.0000   1.0000   1.0000   1.0000
     0.0000   0.0000   0.0000   0.0000

          k =-0.0000 0.3835 0.1226 (  7034 PWs)   bands (ev):

   -11.3704 -11.2820  -2.5484  -2.5159   0.7064   0.7312   1.3308   2.1076
    11.0810  11.4368  13.3611  14.3909

     occupation numbers 
     1.0000   1.0000   1.0000   1.0000   1.0000   1.0000   1.0000   1.0000
     0.0000   0.0000   0.0000   0.0000

          k =-0.0000 0.4794 0.0000 (  7010 PWs)   bands (ev):

   -10.6236 -10.5037  -3.9618  -3.8941   0.2873   0.3393   2.2214   3.4554
     9.3513  10.4654  13.2204  14.2808

     occupation numbers 
     1.0000   1.0000   1.0000   1.0000   1.0000   1.0000   1.0000   1.0000
     0.0000   0.0000   0.0000   0.0000

          k =-0.0000 0.4794 0.1226 (  7032 PWs)   bands (ev):

   -10.5941 -10.5341  -3.9482  -3.9143   0.3002   0.3262   2.5146   3.1315
     9.4945  10.0452  13.7978  14.2428

     occupation numbers 
     1.0000   1.0000   1.0000   1.0000   1.0000   1.0000   1.0000   1.0000
     0.0000   0.0000   0.0000   0.0000

          k = 0.0000-0.5753-0.0000 (  7032 PWs)   bands (ev):

   -10.2364 -10.1769  -4.5338  -4.4776   0.1465   0.1992   2.9122   3.8151
     8.5625   9.8239  13.6777  14.2098

     occupation numbers 
     1.0000   1.0000   1.0000   1.0000   1.0000   1.0000   1.0000   1.0000
     0.0000   0.0000   0.0000   0.0000

          k = 0.0000-0.5753 0.1226 (  7032 PWs)   bands (ev):

   -10.2214 -10.1916  -4.5233  -4.4952   0.1596   0.1860   3.1457   3.6026
     8.7300   9.3551  13.9634  14.1961

     occupation numbers 
     1.0000   1.0000   1.0000   1.0000   1.0000   1.0000   1.0000   1.0000
     0.0000   0.0000   0.0000   0.0000

          k = 0.0830 0.1438-0.0000 (  6991 PWs)   bands (ev):

   -12.9653 -12.7283  -1.2469   0.6415   1.4625   1.4746   2.1533   2.1872
     9.8187  13.8219  15.7352  15.8330

     occupation numbers 
     1.0000   1.0000   1.0000   1.0000   1.0000   1.0000   1.0000   1.0000
     0.0000   0.0000   0.0000   0.0000

          k = 0.0830 0.1438 0.1226 (  7009 PWs)   bands (ev):

   -12.9083 -12.7899  -0.8486   0.0736   1.4717   1.4832   2.1619   2.1787
    10.8530  12.8566  15.7716  15.8241

     occupation numbers 
     1.0000   1.0000   1.0000   1.0000   1.0000   1.0000   1.0000   1.0000
     0.0000   0.0000   0.0000   0.0000

          k = 0.0830 0.2397 0.0000 (  7016 PWs)   bands (ev):

   -12.4531 -12.2328  -0.5291  -0.0101   0.0158   1.2766   1.3718   1.4138
    10.6351  13.2775  14.1948  15.5403

     occupation numbers 
     1.0000   1.0000   1.0000   1.0000   1.0000   1.0000   1.0000   1.0000
     0.0000   0.0000   0.0000   0.0000

          k = 0.0830 0.2397 0.1226 (  7005 PWs)   bands (ev):

   -12.4000 -12.2899  -0.2107  -0.0143   0.0700   0.7703   1.3840   1.4044
    11.4854  12.8137  14.5629  15.4297

     occupation numbers 
     1.0000   1.0000   1.0000   1.0000   1.0000   1.0000   1.0000   1.0000
     0.0000   0.0000   0.0000   0.0000

          k = 0.0830 0.3356 0.0000 (  7022 PWs)   bands (ev):

   -11.7361 -11.5432  -1.7139  -1.6639   0.4991   0.6312   0.6806   2.1579
    11.7345  12.0348  12.4683  15.2049

     occupation numbers 
     1.0000   1.0000   1.0000   1.0000   1.0000   1.0000   1.0000   1.0000
     0.0000   0.0000   0.0000   0.0000

          k = 0.0830 0.3356 0.1226 (  7021 PWs)   bands (ev):

   -11.6893 -11.5929  -1.7069  -1.6811   0.6382   0.6647   0.8766   1.6902
    11.6775  12.0084  13.4986  15.0198

     occupation numbers 
     1.0000   1.0000   1.0000   1.0000   1.0000   1.0000   1.0000   1.0000
     0.0000   0.0000   0.0000   0.0000

          k = 0.0830 0.4315 0.0000 (  7037 PWs)   bands (ev):

   -10.9214 -10.7726  -3.2858  -3.2197   0.0839   0.1379   1.7301   3.1311
    10.1916  11.0335  12.9964  14.9391

     occupation numbers 
     1.0000   1.0000   1.0000   1.0000   1.0000   1.0000   1.0000   1.0000
     0.0000   0.0000   0.0000   0.0000

          k = 0.0830 0.4315 0.1226 (  7033 PWs)   bands (ev):

   -10.8850 -10.8106  -3.2725  -3.2393   0.0965   0.1236   2.0538   2.7506
    10.2607  10.6820  13.9437  14.8475

     occupation numbers 
     1.0000   1.0000   1.0000   1.0000   1.0000   1.0000   1.0000   1.0000
     0.0000   0.0000   0.0000   0.0000

          k = 0.0830 0.5274 0.0000 (  7048 PWs)   bands (ev):

   -10.2771 -10.1971  -4.3089  -4.2467  -0.2030  -0.1468   2.8217   3.8079
     8.8339   9.9604  14.0055  14.7968

     occupation numbers 
     1.0000   1.0000   1.0000   1.0000   1.0000   1.0000   1.0000   1.0000
     0.0000   0.0000   0.0000   0.0000

          k = 0.0830 0.5274 0.1226 (  7029 PWs)   bands (ev):

   -10.2571 -10.2171  -4.2966  -4.2655  -0.1896  -0.1615   3.0712   3.5684
     8.9788   9.5393  14.4300  14.7704

     occupation numbers 
     1.0000   1.0000   1.0000   1.0000   1.0000   1.0000   1.0000   1.0000
     0.0000   0.0000   0.0000   0.0000

          k = 0.1661 0.2877-0.0000 (  7027 PWs)   bands (ev):

   -11.8477 -11.6496  -1.1964  -1.1910   0.3355   0.3684   0.4138   2.0225
    11.6321  12.4661  12.6826  16.4746

     occupation numbers 
     1.0000   1.0000   1.0000   1.0000   1.0000   1.0000   1.0000   1.0000
     0.0000   0.0000   0.0000   0.0000

          k = 0.1661 0.2877 0.1226 (  7016 PWs)   bands (ev):

   -11.7997 -11.7007  -1.2023  -1.1977   0.3765   0.3932   0.7220   1.5475
    11.8481  12.2547  13.6901  15.9088

     occupation numbers 
     1.0000   1.0000   1.0000   1.0000   1.0000   1.0000   1.0000   1.0000
     0.0000   0.0000   0.0000   0.0000

          k = 0.1661 0.3835 0.0000 (  7040 PWs)   bands (ev):

   -11.0894 -10.9264  -2.5448  -2.5068  -0.4910  -0.4387   1.4608   2.9416
    10.9755  11.3610  12.9224  16.4795

     occupation numbers 
     1.0000   1.0000   1.0000   1.0000   1.0000   1.0000   1.0000   1.0000
     0.0000   0.0000   0.0000   0.0000

          k = 0.1661 0.3835 0.1226 (  7044 PWs)   bands (ev):

   -11.0497 -10.9682  -2.5383  -2.5192  -0.4801  -0.4539   1.8001   2.5348
    10.9005  11.1345  14.1414  16.0588

     occupation numbers 
     1.0000   1.0000   1.0000   1.0000   1.0000   1.0000   1.0000   1.0000
     0.0000   0.0000   0.0000   0.0000

          k = 0.1661 0.4794 0.0000 (  7040 PWs)   bands (ev):

   -10.3492 -10.2419  -3.7248  -3.6621  -1.0106  -0.9511   2.6630   3.7802
     9.4626  10.2179  14.3617  16.2764

     occupation numbers 
     1.0000   1.0000   1.0000   1.0000   1.0000   1.0000   1.0000   1.0000
     0.0000   0.0000   0.0000   0.0000

          k = 0.1661 0.4794 0.1226 (  7046 PWs)   bands (ev):

   -10.3227 -10.2691  -3.7117  -3.6804  -0.9974  -0.9676   2.9369   3.4974
     9.5321   9.9169  15.1657  16.1304

     occupation numbers 
     1.0000   1.0000   1.0000   1.0000   1.0000   1.0000   1.0000   1.0000
     0.0000   0.0000   0.0000   0.0000

          k = 0.1661 0.5753 0.0000 (  7063 PWs)   bands (ev):

    -9.9943  -9.9432  -4.2228  -4.1557  -1.1819  -1.1197   3.3372   4.0847
     8.7974   9.6665  15.2821  16.1975

     occupation numbers 
     1.0000   1.0000   1.0000   1.0000   1.0000   1.0000   1.0000   1.0000
     0.0000   0.0000   0.0000   0.0000

          k = 0.1661 0.5753 0.1226 (  7048 PWs)   bands (ev):

    -9.9814  -9.9558  -4.2088  -4.1753  -1.1679  -1.1368   3.5432   3.9229
     8.8813   9.3192  15.7562  16.1606

     occupation numbers 
     1.0000   1.0000   1.0000   1.0000   1.0000   1.0000   1.0000   1.0000
     0.0000   0.0000   0.0000   0.0000

          k = 0.2491 0.4315-0.0000 (  7043 PWs)   bands (ev):

   -10.3825 -10.2649  -3.2561  -3.2241  -1.5594  -1.5151   2.5919   3.7621
     9.8676  10.3068  14.3981  16.3923

     occupation numbers 
     1.0000   1.0000   1.0000   1.0000   1.0000   1.0000   1.0000   1.0000
     0.0000   0.0000   0.0000   0.0000

          k = 0.2491 0.4315 0.1226 (  7057 PWs)   bands (ev):

   -10.3535 -10.2948  -3.2498  -3.2340  -1.5509  -1.5288   2.8755   3.4615
     9.8596  10.1009  15.2922  16.3555

     occupation numbers 
     1.0000   1.0000   1.0000   1.0000   1.0000   1.0000   1.0000   1.0000
     0.0000   0.0000   0.0000   0.0000

          k = 0.2491 0.5274 0.0000 (  7061 PWs)   bands (ev):

    -9.8553  -9.8004  -3.7810  -3.7021  -2.1659  -2.1161   3.5925   4.2479
     9.0759   9.5317  15.5406  15.9454

     occupation numbers 
     1.0000   1.0000   1.0000   1.0000   1.0000   1.0000   1.0000   1.0000
     0.0000   0.0000   0.0000   0.0000

          k = 0.2491 0.5274 0.1226 (  7059 PWs)   bands (ev):

    -9.8415  -9.8141  -3.7629  -3.7235  -2.1563  -2.1313   3.7812   4.1145
     9.0617   9.2988  15.9297  16.4466

     occupation numbers 
     1.0000   1.0000   1.0000   1.0000   1.0000   1.0000   1.0000   1.0000
     0.0000   0.0000   0.0000   0.0000

          k = 0.3322 0.5753-0.0000 (  7071 PWs)   bands (ev):

    -9.6392  -9.6392  -3.5868  -3.4508  -2.8229  -2.8229   4.2126   4.2126
     9.1085   9.1085  14.9315  17.2007

     occupation numbers 
     1.0000   1.0000   1.0000   1.0000   1.0000   1.0000   1.0000   1.0000
     0.0000   0.0000   0.0000   0.0000

          k = 0.3322 0.5753 0.1226 (  7062 PWs)   bands (ev):

    -9.6390  -9.6390  -3.5534  -3.4854  -2.8267  -2.8267   4.2595   4.2595
     8.9717   8.9717  15.4588  16.8577

     occupation numbers 
     1.0000   1.0000   1.0000   1.0000   1.0000   1.0000   1.0000   1.0000
     0.0000   0.0000   0.0000   0.0000

     the Fermi energy is     5.9093 ev

!    total energy              =     -53.71325317 Ry
     estimated scf accuracy    <       0.00000034 Ry
     smearing contrib. (-TS)   =       0.00000000 Ry
     internal energy E=F+TS    =     -53.71325317 Ry

     The total energy is F=E-TS. E is the sum of the following terms:
     one-electron contribution =     -17.79900544 Ry
     hartree contribution      =      17.05574931 Ry
     xc contribution           =     -17.37419316 Ry
     ewald contribution        =     -35.59580388 Ry

     convergence has been achieved in   8 iterations


     -----------------------------------------------
     Non-local corr. energy    =       0.18906848 Ry
     -----------------------------------------------


     Forces acting on atoms (cartesian axes, Ry/au):

     atom    1 type  1   force =     0.00000000   -0.00000000   -0.00000000
     atom    2 type  2   force =    -0.00000000    0.00000000    0.00000000
     atom    3 type  2   force =     0.00000000   -0.00000000   -0.00000000
     atom    4 type  1   force =    -0.00000000    0.00000000    0.00000000
     The non-local contrib.  to forces
     atom    1 type  1   force =    -0.00000000    0.00000000    0.00000000
     atom    2 type  2   force =     0.00000000   -0.00000000   -0.00000000
     atom    3 type  2   force =    -0.00000000    0.00000000    0.00000000
     atom    4 type  1   force =     0.00000000    0.00000000   -0.00000000
     The ionic contribution  to forces
     atom    1 type  1   force =     0.00000768   -0.00000443   -0.00000000
     atom    2 type  2   force =    -0.00000768    0.00000444   -0.00000000
     atom    3 type  2   force =     0.00000768   -0.00000444    0.00000000
     atom    4 type  1   force =    -0.00000768    0.00000443   -0.00000000
     The local contribution  to forces
     atom    1 type  1   force =    -0.00000000   -0.00000000    0.00000000
     atom    2 type  2   force =    -0.00003363    0.00001942    0.00000000
     atom    3 type  2   force =    -0.00000000   -0.00000000    0.00000000
     atom    4 type  1   force =     0.00000416   -0.00000240    0.00000000
     The core correction contribution to forces
     atom    1 type  1   force =    -0.00000001   -0.00000001    0.00000000
     atom    2 type  2   force =     0.00000138   -0.00000082    0.00000000
     atom    3 type  2   force =    -0.00000001   -0.00000002   -0.00000000
     atom    4 type  1   force =     0.00000025   -0.00000016    0.00000000
     The Hubbard contrib.    to forces
     atom    1 type  1   force =     0.00000000    0.00000000    0.00000000
     atom    2 type  2   force =     0.00000000    0.00000000    0.00000000
     atom    3 type  2   force =     0.00000000    0.00000000    0.00000000
     atom    4 type  1   force =     0.00000000    0.00000000    0.00000000
     The SCF correction term to forces
     atom    1 type  1   force =     0.00000000   -0.00000000    0.00000000
     atom    2 type  2   force =     0.00000000   -0.00000000    0.00000000
     atom    3 type  2   force =     0.00000000    0.00000000    0.00000000
     atom    4 type  1   force =    -0.00000000    0.00000000   -0.00000000

     Total force =     0.000000     Total SCF correction =     0.000000


     Computing stress (Cartesian axis) and pressure



     -----------------------------------------------
     Non-local corr. energy    =       0.18906848 Ry
     -----------------------------------------------

          total   stress  (Ry/bohr**3)                   (kbar)     P=      -13.29
  -0.00009583  -0.00000000   0.00000000          -14.10       -0.00        0.00
  -0.00000000  -0.00009583  -0.00000000           -0.00      -14.10       -0.00
   0.00000000  -0.00000000  -0.00007940            0.00       -0.00      -11.68

     kinetic stress (kbar)  14058.69     -0.00     -0.00
                               -0.00  14058.69     -0.00
                               -0.00      0.00  15311.03

     local   stress (kbar) -18720.68      0.01      0.00
                                0.01 -18720.67      0.00
                                0.00      0.00  20618.73

     nonloc. stress (kbar)  -2313.41     -0.00     -0.00
                               -0.00  -2313.41      0.00
                               -0.00      0.00  -2238.83

     hartree stress (kbar)   7479.71      0.00      0.00
                                0.00   7479.71     -0.00
                                0.00     -0.00  -5026.55

     exc-cor stress (kbar)  -1412.95     -0.00      0.00
                               -0.00  -1412.95     -0.00
                                0.00     -0.00  -1546.24

     corecor stress (kbar)  -1580.97      0.00     -0.00
                                0.00  -1580.97      0.00
                               -0.00      0.00  -1546.98

     ewald   stress (kbar)   2461.71     -0.02     -0.00
                               -0.02   2461.69     -0.00
                               -0.00     -0.00 -25653.57

     hubbard stress (kbar)      0.00      0.00      0.00
                                0.00      0.00      0.00
                                0.00      0.00      0.00

     DFT-D   stress (kbar)      0.00      0.00      0.00
                                0.00      0.00      0.00
                                0.00      0.00      0.00

     XDM     stress (kbar)      0.00      0.00      0.00
                                0.00      0.00      0.00
                                0.00      0.00      0.00

     dft-nl  stress (kbar)     13.81      0.00      0.00
                                0.00     13.81     -0.00
                                0.00     -0.00     70.73

     TS-vdW  stress (kbar)      0.00      0.00      0.00
                                0.00      0.00      0.00
                                0.00      0.00      0.00

     MDB     stress (kbar)      0.00      0.00      0.00
                                0.00      0.00      0.00
                                0.00      0.00      0.00

     3D-RISM stress (kbar)      0.00      0.00      0.00
                                0.00      0.00      0.00
                                0.00      0.00      0.00

     Energy error            =      9.1E-05 Ry
     Gradient error          =      1.3E-22 Ry/Bohr
     Cell gradient error     =      1.4E+01 kbar

     number of scf cycles    =   2
     number of bfgs steps    =   1

     enthalpy           old  =     -53.7131619990 Ry
     enthalpy           new  =     -53.7132531655 Ry

     CASE: enthalpy          _new < enthalpy          _old

     new trust radius        =       0.0058007075 bohr
     new conv_thr            =       0.0000000100 Ry

     new unit-cell volume =    251.58458 a.u.^3 (    37.28099 Ang^3 )
     density =      2.13798 g/cm^3

CELL_PARAMETERS (alat=  4.74000000)
   1.002465640   0.000000000   0.000000000
  -0.501232820   0.868160711  -0.000000000
   0.000000000  -0.000000000   2.714434514

ATOMIC_POSITIONS (crystal)
B             0.0000000000        0.0000000000        0.0000000000    0   0   0
N             0.6666670000        0.3333330000        0.0000000000    0   0   0
N            -0.0000000000       -0.0000000000        0.5000000000
B             0.6666670000        0.3333330000        0.5000000000



     Writing config-only to output data dir ./tmp/BNBULK_AA1_PBE_vdW.save/
     NEW-OLD atomic charge density approx. for the potential


[...]
    10.8245  14.5770  15.7614  15.8233

     occupation numbers 
     1.0000   1.0000   1.0000   1.0000   1.0000   1.0000   1.0000   1.0000
     0.0000   0.0000   0.0000   0.0000

          k = 0.0000 0.1920 0.1281 (  6719 PWs)   bands (ev):

   -12.3339 -12.1712  -0.3031   0.7999   1.4819   1.5295   2.5381   2.5684
    11.9296  13.8192  15.8603  15.9381

     occupation numbers 
     1.0000   1.0000   1.0000   1.0000   1.0000   1.0000   1.0000   1.0000
     0.0000   0.0000   0.0000   0.0000

          k = 0.0000 0.2881 0.0000 (  6729 PWs)   bands (ev):

   -11.7773 -11.4805  -0.3215  -0.2460   0.1137   1.7979   1.8670   2.2869
    11.7502  13.5208  14.0357  15.3401

     occupation numbers 
     1.0000   1.0000   1.0000   1.0000   1.0000   1.0000   1.0000   1.0000
     0.0000   0.0000   0.0000   0.0000

          k = 0.0000 0.2881 0.1281 (  6719 PWs)   bands (ev):

   -11.7065 -11.5583  -0.3278  -0.2789   0.6061   1.6615   1.8151   1.8496
    12.4249  13.2906  14.5392  15.3164

     occupation numbers 
     1.0000   1.0000   1.0000   1.0000   1.0000   1.0000   1.0000   1.0000
     0.0000   0.0000   0.0000   0.0000

          k = 0.0000 0.3841 0.0000 (  6750 PWs)   bands (ev):

   -10.9733 -10.7236  -2.0917  -1.9930   1.1747   1.2497   1.2848   3.2318
    11.5846  12.5129  12.8503  15.0000

     occupation numbers 
     1.0000   1.0000   1.0000   1.0000   1.0000   1.0000   1.0000   1.0000
     0.0000   0.0000   0.0000   0.0000

          k = 0.0000 0.3841 0.1281 (  6734 PWs)   bands (ev):

   -10.9132 -10.7884  -2.0743  -2.0242   1.1933   1.2308   1.7205   2.6820
    11.5677  12.0479  14.1092  14.9612

     occupation numbers 
     1.0000   1.0000   1.0000   1.0000   1.0000   1.0000   1.0000   1.0000
     0.0000   0.0000   0.0000   0.0000

          k = 0.0000 0.4801 0.0000 (  6758 PWs)   bands (ev):

   -10.1684  -9.9980  -3.4975  -3.3987   0.7658   0.8440   2.5505   4.0921
     9.7771  11.1527  13.8532  14.7839

     occupation numbers 
     1.0000   1.0000   1.0000   1.0000   1.0000   1.0000   1.0000   1.0000
     0.0000   0.0000   0.0000   0.0000

          k = 0.0000 0.4801 0.1281 (  6732 PWs)   bands (ev):

   -10.1266 -10.0414  -3.4791  -3.4295   0.7852   0.8243   2.9182   3.6903
     9.9391  10.6231  14.4364  14.7872

     occupation numbers 
     1.0000   1.0000   1.0000   1.0000   1.0000   1.0000   1.0000   1.0000
     0.0000   0.0000   0.0000   0.0000

          k =-0.0000-0.5761-0.0000 (  6760 PWs)   bands (ev):

    -9.7666  -9.6813  -4.0677  -3.9899   0.6242   0.7036   3.2633   4.4005
     9.0030  10.5185  14.2552  14.7102

     occupation numbers 
     1.0000   1.0000   1.0000   1.0000   1.0000   1.0000   1.0000   1.0000
     0.0000   0.0000   0.0000   0.0000

          k =-0.0000-0.5761 0.1281 (  6722 PWs)   bands (ev):

    -9.7450  -9.7023  -4.0551  -4.0161   0.6439   0.6836   3.5636   4.1433
     9.1727   9.9269  14.5558  14.7316

     occupation numbers 
     1.0000   1.0000   1.0000   1.0000   1.0000   1.0000   1.0000   1.0000
     0.0000   0.0000   0.0000   0.0000

          k = 0.0832 0.1440-0.0000 (  6707 PWs)   bands (ev):

   -12.5425 -12.2111  -0.9620   1.3625   1.9540   1.9828   2.6448   2.6961
    10.6280  14.7413  16.2635  16.4163

     occupation numbers 
     1.0000   1.0000   1.0000   1.0000   1.0000   1.0000   1.0000   1.0000
     0.0000   0.0000   0.0000   0.0000

          k = 0.0832 0.1440 0.1281 (  6726 PWs)   bands (ev):

   -12.4639 -12.2985  -0.4784   0.6493   1.9696   1.9932   2.6578   2.6831
    11.7827  13.8544  16.3007  16.3893

     occupation numbers 
     1.0000   1.0000   1.0000   1.0000   1.0000   1.0000   1.0000   1.0000
     0.0000   0.0000   0.0000   0.0000

          k = 0.0832 0.2400 0.0000 (  6720 PWs)   bands (ev):

   -12.0255 -11.7165  -0.2384   0.4748   0.5213   1.8578   1.9208   1.9891
    11.4358  14.0575  14.6832  16.0604

     occupation numbers 
     1.0000   1.0000   1.0000   1.0000   1.0000   1.0000   1.0000   1.0000
     0.0000   0.0000   0.0000   0.0000

          k = 0.0832 0.2400 0.1281 (  6717 PWs)   bands (ev):

   -11.9519 -11.7977   0.1666   0.4778   0.5591   1.3564   1.8766   1.9069
    12.3464  13.6271  15.1514  16.0263

     occupation numbers 
     1.0000   1.0000   1.0000   1.0000   1.0000   1.0000   1.0000   1.0000
     0.0000   0.0000   0.0000   0.0000

          k = 0.0832 0.3361 0.0000 (  6739 PWs)   bands (ev):

   -11.3005 -11.0288  -1.2393  -1.1603   0.7999   1.1121   1.1865   2.8538
    12.5048  12.5554  13.0926  15.7205

     occupation numbers 
     1.0000   1.0000   1.0000   1.0000   1.0000   1.0000   1.0000   1.0000
     0.0000   0.0000   0.0000   0.0000

          k = 0.0832 0.3361 0.1281 (  6731 PWs)   bands (ev):

   -11.2354 -11.0996  -1.2290  -1.1878   1.1164   1.1594   1.2762   2.2695
    12.2487  12.6568  14.2676  15.6297

     occupation numbers 
     1.0000   1.0000   1.0000   1.0000   1.0000   1.0000   1.0000   1.0000
     0.0000   0.0000   0.0000   0.0000

          k = 0.0832 0.4321 0.0000 (  6741 PWs)   bands (ev):

   -10.4735 -10.2627  -2.8194  -2.7209   0.5616   0.6428   2.0484   3.7928
    10.6249  11.7065  13.6990  15.4466

     occupation numbers 
     1.0000   1.0000   1.0000   1.0000   1.0000   1.0000   1.0000   1.0000
     0.0000   0.0000   0.0000   0.0000

          k = 0.0832 0.4321 0.1281 (  6738 PWs)   bands (ev):

   -10.4223 -10.3170  -2.8007  -2.7512   0.5801   0.6210   2.4512   3.3182
    10.7173  11.2653  14.6782  15.4130

     occupation numbers 
     1.0000   1.0000   1.0000   1.0000   1.0000   1.0000   1.0000   1.0000
     0.0000   0.0000   0.0000   0.0000

          k = 0.0832 0.5281 0.0000 (  6736 PWs)   bands (ev):

    -9.8117  -9.6975  -3.8441  -3.7563   0.2730   0.3574   3.1681   4.4058
     9.2743  10.6453  14.6095  15.2991

     occupation numbers 
     1.0000   1.0000   1.0000   1.0000   1.0000   1.0000   1.0000   1.0000
     0.0000   0.0000   0.0000   0.0000

          k = 0.0832 0.5281 0.1281 (  6751 PWs)   bands (ev):

    -9.7832  -9.7260  -3.8284  -3.7844   0.2929   0.3352   3.4867   4.1142
     9.4239  10.1097  15.0463  15.3108

     occupation numbers 
     1.0000   1.0000   1.0000   1.0000   1.0000   1.0000   1.0000   1.0000
     0.0000   0.0000   0.0000   0.0000

          k = 0.1663 0.2881-0.0000 (  6707 PWs)   bands (ev):

   -11.4136 -11.1347  -0.7122  -0.6935   0.6345   0.8511   0.9164   2.7217
    12.4222  13.1335  13.1743  16.9516

     occupation numbers 
     1.0000   1.0000   1.0000   1.0000   1.0000   1.0000   1.0000   1.0000
     0.0000   0.0000   0.0000   0.0000

          k = 0.1663 0.2881 0.1281 (  6735 PWs)   bands (ev):

   -11.3468 -11.2075  -0.7197  -0.7064   0.8618   0.8780   1.1215   2.1292
    12.4847  12.9153  14.4600  16.7941

     occupation numbers 
     1.0000   1.0000   1.0000   1.0000   1.0000   1.0000   1.0000   1.0000
     0.0000   0.0000   0.0000   0.0000

          k = 0.1663 0.3841 0.0000 (  6743 PWs)   bands (ev):

   -10.6452 -10.4145  -2.0693  -2.0121  -0.0132   0.0631   1.7741   3.6145
    11.4204  12.0225  13.6823  16.9852

     occupation numbers 
     1.0000   1.0000   1.0000   1.0000   1.0000   1.0000   1.0000   1.0000
     0.0000   0.0000   0.0000   0.0000

          k = 0.1663 0.3841 0.1281 (  6757 PWs)   bands (ev):

   -10.5895 -10.4742  -2.0603  -2.0314   0.0018   0.0399   2.1955   3.1070
    11.3713  11.7247  14.9971  16.7674

     occupation numbers 
     1.0000   1.0000   1.0000   1.0000   1.0000   1.0000   1.0000   1.0000
     0.0000   0.0000   0.0000   0.0000

          k = 0.1663 0.4801 0.0000 (  6760 PWs)   bands (ev):

    -9.8898  -9.7369  -3.2591  -3.1694  -0.5369  -0.4485   3.0020   4.3981
     9.9093  10.8805  15.0549  16.7823

     occupation numbers 
     1.0000   1.0000   1.0000   1.0000   1.0000   1.0000   1.0000   1.0000
     0.0000   0.0000   0.0000   0.0000

          k = 0.1663 0.4801 0.1281 (  6756 PWs)   bands (ev):

    -9.8522  -9.7758  -3.2416  -3.1966  -0.5180  -0.4736   3.3484   4.0510
     9.9847  10.4839  15.9101  16.7105

     occupation numbers 
     1.0000   1.0000   1.0000   1.0000   1.0000   1.0000   1.0000   1.0000
     0.0000   0.0000   0.0000   0.0000

          k = 0.1663 0.5761 0.0000 (  6761 PWs)   bands (ev):

    -9.5211  -9.4476  -3.7596  -3.6663  -0.7094  -0.6168   3.7034   4.6437
     9.2682  10.3302  15.8882  16.7017

     occupation numbers 
     1.0000   1.0000   1.0000   1.0000   1.0000   1.0000   1.0000   1.0000
     0.0000   0.0000   0.0000   0.0000

          k = 0.1663 0.5761 0.1281 (  6760 PWs)   bands (ev):

    -9.5024  -9.4657  -3.7417  -3.6950  -0.6893  -0.6428   3.9722   4.4545
     9.3380   9.8774  16.3896  16.6990

     occupation numbers 
     1.0000   1.0000   1.0000   1.0000   1.0000   1.0000   1.0000   1.0000
     0.0000   0.0000   0.0000   0.0000

          k = 0.2495 0.4321-0.0000 (  6767 PWs)   bands (ev):

    -9.9254  -9.7580  -2.7800  -2.7406  -1.0805  -1.0190   2.9278   4.3884
    10.3167  10.9612  15.1299  16.8686

     occupation numbers 
     1.0000   1.0000   1.0000   1.0000   1.0000   1.0000   1.0000   1.0000
     0.0000   0.0000   0.0000   0.0000

          k = 0.2495 0.4321 0.1281 (  6764 PWs)   bands (ev):

    -9.8844  -9.8007  -2.7730  -2.7538  -1.0703  -1.0396   3.2853   4.0183
    10.3153  10.6681  16.1043  16.9688

     occupation numbers 
     1.0000   1.0000   1.0000   1.0000   1.0000   1.0000   1.0000   1.0000
     0.0000   0.0000   0.0000   0.0000

          k = 0.2495 0.5281 0.0000 (  6758 PWs)   bands (ev):

    -9.3816  -9.3030  -3.3215  -3.2112  -1.6906  -1.6182   3.9699   4.7898
     9.5769  10.1665  15.9495  16.6112

     occupation numbers 
     1.0000   1.0000   1.0000   1.0000   1.0000   1.0000   1.0000   1.0000
     0.0000   0.0000   0.0000   0.0000

          k = 0.2495 0.5281 0.1281 (  6771 PWs)   bands (ev):

    -9.3618  -9.3225  -3.2970  -3.2420  -1.6780  -1.6416   4.2178   4.6389
     9.5328   9.8443  16.4055  17.1428

     occupation numbers 
     1.0000   1.0000   1.0000   1.0000   1.0000   1.0000   1.0000   1.0000
     0.0000   0.0000   0.0000   0.0000

          k = 0.3326 0.5761-0.0000 (  6735 PWs)   bands (ev):

    -9.1521  -9.1521  -3.1447  -2.9531  -2.3334  -2.3334   4.6600   4.6600
     9.6875   9.6875  15.3103  17.8070

     occupation numbers 
     1.0000   1.0000   1.0000   1.0000   1.0000   1.0000   1.0000   1.0000
     0.0000   0.0000   0.0000   0.0000

          k = 0.3326 0.5761 0.1281 (  6759 PWs)   bands (ev):

    -9.1517  -9.1517  -3.0979  -3.0021  -2.3408  -2.3408   4.7379   4.7379
     9.4814   9.4814  15.8995  17.4292

     occupation numbers 
     1.0000   1.0000   1.0000   1.0000   1.0000   1.0000   1.0000   1.0000
     0.0000   0.0000   0.0000   0.0000

     the Fermi energy is     6.4455 ev

!    total energy              =     -53.71376391 Ry
     estimated scf accuracy    <          6.7E-10 Ry
     smearing contrib. (-TS)   =       0.00000000 Ry
     internal energy E=F+TS    =     -53.71376391 Ry

     The total energy is F=E-TS. E is the sum of the following terms:
     one-electron contribution =     -14.53934844 Ry
     hartree contribution      =      15.72375754 Ry
     xc contribution           =     -17.39557807 Ry
     ewald contribution        =     -37.50259494 Ry

     convergence has been achieved in  10 iterations


     -----------------------------------------------
     Non-local corr. energy    =       0.18513735 Ry
     -----------------------------------------------


     Forces acting on atoms (cartesian axes, Ry/au):

     atom    1 type  1   force =    -0.00000000   -0.00000000    0.00000000
     atom    2 type  2   force =     0.00000000    0.00000000   -0.00000000
     atom    3 type  2   force =    -0.00000000   -0.00000000   -0.00000000
     atom    4 type  1   force =    -0.00000000   -0.00000000    0.00000000
     The non-local contrib.  to forces
     atom    1 type  1   force =     0.00000000   -0.00000000   -0.00000000
     atom    2 type  2   force =    -0.00000000   -0.00000000    0.00000000
     atom    3 type  2   force =    -0.00000000   -0.00000000    0.00000000
     atom    4 type  1   force =     0.00000000    0.00000000    0.00000000
     The ionic contribution  to forces
     atom    1 type  1   force =     0.00000770   -0.00000445   -0.00000000
     atom    2 type  2   force =    -0.00000771    0.00000445   -0.00000000
     atom    3 type  2   force =     0.00000771   -0.00000445    0.00000000
     atom    4 type  1   force =    -0.00000770    0.00000445    0.00000000
     The local contribution  to forces
     atom    1 type  1   force =    -0.00000000   -0.00000000    0.00000000
     atom    2 type  2   force =    -0.00003358    0.00001939    0.00000000
     atom    3 type  2   force =     0.00000000    0.00000000    0.00000000
     atom    4 type  1   force =     0.00000417   -0.00000241    0.00000000
     The core correction contribution to forces
     atom    1 type  1   force =     0.00000000    0.00000000    0.00000000
     atom    2 type  2   force =     0.00000138   -0.00000080    0.00000000
     atom    3 type  2   force =    -0.00000000   -0.00000000   -0.00000000
     atom    4 type  1   force =     0.00000025   -0.00000015    0.00000000
     The Hubbard contrib.    to forces
     atom    1 type  1   force =     0.00000000    0.00000000    0.00000000
     atom    2 type  2   force =     0.00000000    0.00000000    0.00000000
     atom    3 type  2   force =     0.00000000    0.00000000    0.00000000
     atom    4 type  1   force =     0.00000000    0.00000000    0.00000000
     The SCF correction term to forces
     atom    1 type  1   force =     0.00000000   -0.00000000   -0.00000000
     atom    2 type  2   force =    -0.00000000    0.00000000   -0.00000000
     atom    3 type  2   force =     0.00000000   -0.00000000   -0.00000000
     atom    4 type  1   force =     0.00000000   -0.00000000   -0.00000000

     Total force =     0.000000     Total SCF correction =     0.000000


     Computing stress (Cartesian axis) and pressure



     -----------------------------------------------
     Non-local corr. energy    =       0.18513735 Ry
     -----------------------------------------------

          total   stress  (Ry/bohr**3)                   (kbar)     P=        0.01
  -0.00000027   0.00000000  -0.00000000           -0.04        0.00       -0.00
   0.00000000  -0.00000027  -0.00000000            0.00       -0.04       -0.00
   0.00000000  -0.00000000   0.00000085            0.00       -0.00        0.12

     kinetic stress (kbar)  14760.59     -0.00     -0.00
                               -0.00  14760.59      0.00
                               -0.00      0.00  16079.54

     local   stress (kbar) -17679.80      0.01     -0.00
                                0.01 -17679.79      0.00
                               -0.00      0.00  19698.33

     nonloc. stress (kbar)  -2430.45     -0.00     -0.00
                               -0.00  -2430.45      0.00
                                0.00      0.00  -2353.34

     hartree stress (kbar)   7032.25     -0.00      0.00
                               -0.00   7032.25      0.00
                                0.00      0.00  -4464.55

     exc-cor stress (kbar)  -1484.88     -0.00     -0.00
                               -0.00  -1484.88      0.00
                               -0.00      0.00  -1621.29

     corecor stress (kbar)  -1657.85      0.00      0.00
                                0.00  -1657.85     -0.00
                                0.00     -0.00  -1622.13

     ewald   stress (kbar)   1445.35     -0.02     -0.00
                               -0.02   1445.32     -0.00
                               -0.00     -0.00 -25787.42

     hubbard stress (kbar)      0.00      0.00      0.00
                                0.00      0.00      0.00
                                0.00      0.00      0.00

     DFT-D   stress (kbar)      0.00      0.00      0.00
                                0.00      0.00      0.00
                                0.00      0.00      0.00

     XDM     stress (kbar)      0.00      0.00      0.00
                                0.00      0.00      0.00
                                0.00      0.00      0.00

     dft-nl  stress (kbar)     14.77      0.00      0.00
                                0.00     14.77     -0.00
                                0.00     -0.00     70.98

     TS-vdW  stress (kbar)      0.00      0.00      0.00
                                0.00      0.00      0.00
                                0.00      0.00      0.00

     MDB     stress (kbar)      0.00      0.00      0.00
                                0.00      0.00      0.00
                                0.00      0.00      0.00

     3D-RISM stress (kbar)      0.00      0.00      0.00
                                0.00      0.00      0.00
                                0.00      0.00      0.00


     Writing all to output data dir ./tmp/BNBULK_AA1_PBE_vdW.save/

     init_run     :     10.13s CPU     10.18s WALL (       2 calls)
     electrons    :    141.54s CPU    143.90s WALL (      13 calls)
     update_pot   :      7.88s CPU      7.99s WALL (      11 calls)
     forces       :      6.07s CPU      6.19s WALL (      13 calls)
     stress       :     18.49s CPU     19.53s WALL (      13 calls)

     Called by init_run:
     wfcinit      :      0.68s CPU      0.68s WALL (       2 calls)
     wfcinit:atom :      0.01s CPU      0.02s WALL (      76 calls)
     wfcinit:wfcr :      0.61s CPU      0.60s WALL (      76 calls)
     potinit      :      8.49s CPU      8.52s WALL (       2 calls)
     hinit0       :      0.88s CPU      0.88s WALL (       2 calls)

     Called by electrons:
     c_bands      :    117.54s CPU    118.06s WALL (     147 calls)
     sum_band     :     15.22s CPU     15.73s WALL (     147 calls)
     v_of_rho     :     17.09s CPU     17.99s WALL (     157 calls)
     v_h          :      0.09s CPU      0.10s WALL (     157 calls)
     v_xc         :     18.46s CPU     19.52s WALL (     183 calls)
     mix_rho      :      0.39s CPU      0.86s WALL (     147 calls)
     vdW_kernel   :      8.10s CPU      8.12s WALL (       1 calls)

     Called by c_bands:
     init_us_2    :      2.85s CPU      2.90s WALL (   12236 calls)
     init_us_2:cp :      2.82s CPU      2.86s WALL (   12236 calls)
     cegterg      :    112.60s CPU    112.82s WALL (    5586 calls)

     Called by sum_band:
     sum_band:wei :      0.01s CPU      0.01s WALL (     147 calls)
     sum_band:loo :     14.97s CPU     15.47s WALL (     147 calls)
     sum_band:buf :      0.32s CPU      0.33s WALL (    5586 calls)
     sum_band:ini :      1.20s CPU      1.23s WALL (    5586 calls)

     Called by *egterg:
     cdiaghg      :      3.36s CPU      3.42s WALL (   18823 calls)
     cegterg:over :      6.00s CPU      6.16s WALL (   13769 calls)
     cegterg:upda :      4.86s CPU      4.79s WALL (   13769 calls)
     cegterg:last :      6.68s CPU      5.47s WALL (   11328 calls)
     h_psi        :     87.80s CPU     88.44s WALL (   19431 calls)
     g_psi        :      0.61s CPU      0.82s WALL (   13769 calls)

     Called by h_psi:
     h_psi:calbec :      6.49s CPU      6.54s WALL (   19431 calls)
     vloc_psi     :     72.75s CPU     75.11s WALL (   19431 calls)
     add_vuspsi   :      7.76s CPU      5.87s WALL (   19431 calls)

     General routines
     calbec       :      7.63s CPU      7.68s WALL (   21901 calls)
     fft          :      4.13s CPU      4.25s WALL (   11618 calls)
     ffts         :      0.04s CPU      0.04s WALL (     147 calls)
     fftw         :     76.18s CPU     78.43s WALL (  416808 calls)

     Parallel routines

     PWSCF        :   3m 4.34s CPU   3m 8.10s WALL


   This run was terminated on:  18:34:34   6Apr2024            

=------------------------------------------------------------------------------=
   JOB DONE.
=------------------------------------------------------------------------------=
