
     Program PWSCF v.7.2 starts on  4Apr2024 at 11:36:42 

     This program is part of the open-source Quantum ESPRESSO suite
     for quantum simulation of materials; please cite
         "P. Giannozzi et al., J. Phys.:Condens. Matter 21 395502 (2009);
         "P. Giannozzi et al., J. Phys.:Condens. Matter 29 465901 (2017);
         "P. Giannozzi et al., J. Chem. Phys. 152 154105 (2020);
          URL http://www.quantum-espresso.org", 
     in publications or presentations arising from this work. More details at
     http://www.quantum-espresso.org/quote

     Parallel version (MPI & OpenMP), running on       8 processor cores
     Number of MPI processes:                 8
     Threads/MPI process:                     1

     MPI processes distributed on     1 nodes
     0 MiB available memory on the printing compute node when the environment starts

     Waiting for input...
     Reading input from standard input

     Current dimensions of program PWSCF are:
     Max number of different atomic species (ntypx) = 10
     Max number of k-points (npk) =  40000
     Max angular momentum in pseudopotentials (lmaxx) =  4

     IMPORTANT: XC functional enforced from input :
     Exchange-correlation= VDW-DF2-B86R
                           (   1   4  26   0   2   0   0)
     Any further DFT definition will be discarded
     Please, verify this is what you really want


     R & G space division:  proc/nbgrp/npool/nimage =       8
     Subspace diagonalization in iterative solution of the eigenvalue problem:
     a serial algorithm will be used


     Parallelization info
     --------------------
     sticks:   dense  smooth     PW     G-vecs:    dense   smooth      PW
     Min          74      74     22                 4034     4034     654
     Max          75      75     24                 4043     4043     656
     Sum         595     595    187                32295    32295    5235

     Using Slab Decomposition



     bravais-lattice index     =            4
     lattice parameter (alat)  =       4.6645  a.u.
     unit-cell volume          =     239.5607 (a.u.)^3
     number of atoms/cell      =            4
     number of atomic types    =            1
     number of electrons       =        16.00
     number of Kohn-Sham states=           12
     kinetic-energy cutoff     =     100.0000  Ry
     charge density cutoff     =     400.0000  Ry
     scf convergence threshold =      1.0E-06
     mixing beta               =       0.7000
     number of iterations used =            8  plain     mixing
     energy convergence thresh.=      1.0E-04
     force convergence thresh. =      1.0E-03
     press convergence thresh. =      5.0E-01
     Exchange-correlation= VDW-DF2-B86R
                           (   1   4  26   0   2   0   0)
     nstep                     =           50


     celldm(1)=   4.664470  celldm(2)=   0.000000  celldm(3)=   2.725700
     celldm(4)=   0.000000  celldm(5)=   0.000000  celldm(6)=   0.000000

     crystal axes: (cart. coord. in units of alat)
               a(1) = (   1.000000   0.000000   0.000000 )  
               a(2) = (  -0.500000   0.866025   0.000000 )  
               a(3) = (   0.000000   0.000000   2.725700 )  

     reciprocal axes: (cart. coord. in units 2 pi/alat)
               b(1) = (  1.000000  0.577350 -0.000000 )  
               b(2) = (  0.000000  1.154701  0.000000 )  
               b(3) = (  0.000000 -0.000000  0.366878 )  


     PseudoPot. # 1 for C  read from file:
     ../../../Pseudo/PBE/C.upf
     MD5 check sum: 34a24e64c0a39f27c6c36b90a16ac686
     Pseudo is Norm-conserving + core correction, Zval =  4.0
     Generated using ONCVPSP code by D. R. Hamann
     Using radial grid of 1248 points,  4 beta functions with: 
                l(1) =   0
                l(2) =   0
                l(3) =   1
                l(4) =   1

     atomic species   valence    mass     pseudopotential
        C              4.00    12.01100     C ( 1.00)

     24 Sym. Ops., with inversion, found (12 have fractional translation)


                                    s                        frac. trans.

      isym =  1     identity                                     

 cryst.   s( 1) = (     1          0          0      )
                  (     0          1          0      )
                  (     0          0          1      )

 cart.    s( 1) = (  1.0000000  0.0000000  0.0000000 )
                  (  0.0000000  1.0000000  0.0000000 )
                  (  0.0000000  0.0000000  1.0000000 )


      isym =  2     180 deg rotation - cart. axis [0,0,1]        

 cryst.   s( 2) = (    -1          0          0      )    f =(  0.0000000 )
                  (     0         -1          0      )       (  0.0000000 )
                  (     0          0          1      )       ( -0.5000000 )

 cart.    s( 2) = ( -1.0000000  0.0000000  0.0000000 )    f =(  0.0000000 )
                  (  0.0000000 -1.0000000  0.0000000 )       (  0.0000000 )
                  (  0.0000000  0.0000000  1.0000000 )       ( -1.3628500 )


      isym =  3     180 deg rotation - cart. axis [0,1,0]        

 cryst.   s( 3) = (    -1          0          0      )
                  (     1          1          0      )
                  (     0          0         -1      )

 cart.    s( 3) = ( -1.0000000  0.0000000  0.0000000 )
                  (  0.0000000  1.0000000  0.0000000 )
                  (  0.0000000  0.0000000 -1.0000000 )


      isym =  4     180 deg rotation - cart. axis [1,0,0]        

 cryst.   s( 4) = (     1          0          0      )    f =(  0.0000000 )
                  (    -1         -1          0      )       (  0.0000000 )
                  (     0          0         -1      )       (  0.5000000 )

 cart.    s( 4) = (  1.0000000  0.0000000  0.0000000 )    f =(  0.0000000 )
                  (  0.0000000 -1.0000000  0.0000000 )       (  0.0000000 )
                  (  0.0000000  0.0000000 -1.0000000 )       (  1.3628500 )


      isym =  5      60 deg rotation - cryst. axis [0,0,1]       

 cryst.   s( 5) = (     1          1          0      )    f =(  0.0000000 )
                  (    -1          0          0      )       (  0.0000000 )
                  (     0          0          1      )       ( -0.5000000 )

 cart.    s( 5) = (  0.5000000 -0.8660254  0.0000000 )    f =(  0.0000000 )
                  (  0.8660254  0.5000000  0.0000000 )       (  0.0000000 )
                  (  0.0000000  0.0000000  1.0000000 )       ( -1.3628500 )


      isym =  6      60 deg rotation - cryst. axis [0,0,-1]      

 cryst.   s( 6) = (     0         -1          0      )    f =(  0.0000000 )
                  (     1          1          0      )       (  0.0000000 )
                  (     0          0          1      )       ( -0.5000000 )

 cart.    s( 6) = (  0.5000000  0.8660254  0.0000000 )    f =(  0.0000000 )
                  ( -0.8660254  0.5000000  0.0000000 )       (  0.0000000 )
                  (  0.0000000  0.0000000  1.0000000 )       ( -1.3628500 )


      isym =  7     120 deg rotation - cryst. axis [0,0,1]       

 cryst.   s( 7) = (     0          1          0      )
                  (    -1         -1          0      )
                  (     0          0          1      )

 cart.    s( 7) = ( -0.5000000 -0.8660254  0.0000000 )
                  (  0.8660254 -0.5000000  0.0000000 )
                  (  0.0000000  0.0000000  1.0000000 )


      isym =  8     120 deg rotation - cryst. axis [0,0,-1]      

 cryst.   s( 8) = (    -1         -1          0      )
                  (     1          0          0      )
                  (     0          0          1      )

 cart.    s( 8) = ( -0.5000000  0.8660254  0.0000000 )
                  ( -0.8660254 -0.5000000  0.0000000 )
                  (  0.0000000  0.0000000  1.0000000 )


      isym =  9     180 deg rotation - cryst. axis [1,-1,0]      

 cryst.   s( 9) = (     0         -1          0      )
                  (    -1          0          0      )
                  (     0          0         -1      )

 cart.    s( 9) = (  0.5000000 -0.8660254  0.0000000 )
                  ( -0.8660254 -0.5000000  0.0000000 )
                  (  0.0000000  0.0000000 -1.0000000 )


      isym = 10     180 deg rotation - cryst. axis [2,1,0]       

 cryst.   s(10) = (     1          1          0      )
                  (     0         -1          0      )
                  (     0          0         -1      )

 cart.    s(10) = (  0.5000000  0.8660254  0.0000000 )
                  (  0.8660254 -0.5000000  0.0000000 )
                  (  0.0000000  0.0000000 -1.0000000 )


      isym = 11     180 deg rotation - cryst. axis [0,1,0]       

 cryst.   s(11) = (    -1         -1          0      )    f =(  0.0000000 )
                  (     0          1          0      )       (  0.0000000 )
                  (     0          0         -1      )       (  0.5000000 )

 cart.    s(11) = ( -0.5000000 -0.8660254  0.0000000 )    f =(  0.0000000 )
                  ( -0.8660254  0.5000000  0.0000000 )       (  0.0000000 )
                  (  0.0000000  0.0000000 -1.0000000 )       (  1.3628500 )


      isym = 12     180 deg rotation - cryst. axis [1,1,0]       

 cryst.   s(12) = (     0          1          0      )    f =(  0.0000000 )
                  (     1          0          0      )       (  0.0000000 )
                  (     0          0         -1      )       (  0.5000000 )

 cart.    s(12) = ( -0.5000000  0.8660254  0.0000000 )    f =(  0.0000000 )
                  (  0.8660254  0.5000000  0.0000000 )       (  0.0000000 )
                  (  0.0000000  0.0000000 -1.0000000 )       (  1.3628500 )


      isym = 13     inversion                                    

 cryst.   s(13) = (    -1          0          0      )    f =(  0.0000000 )
                  (     0         -1          0      )       (  0.0000000 )
                  (     0          0         -1      )       (  0.5000000 )

 cart.    s(13) = ( -1.0000000  0.0000000  0.0000000 )    f =(  0.0000000 )
                  (  0.0000000 -1.0000000  0.0000000 )       (  0.0000000 )
                  (  0.0000000  0.0000000 -1.0000000 )       (  1.3628500 )


      isym = 14     inv. 180 deg rotation - cart. axis [0,0,1]   

 cryst.   s(14) = (     1          0          0      )
                  (     0          1          0      )
                  (     0          0         -1      )

 cart.    s(14) = (  1.0000000  0.0000000  0.0000000 )
                  (  0.0000000  1.0000000  0.0000000 )
                  (  0.0000000  0.0000000 -1.0000000 )


      isym = 15     inv. 180 deg rotation - cart. axis [0,1,0]   

 cryst.   s(15) = (     1          0          0      )    f =(  0.0000000 )
                  (    -1         -1          0      )       (  0.0000000 )
                  (     0          0          1      )       ( -0.5000000 )

 cart.    s(15) = (  1.0000000  0.0000000  0.0000000 )    f =(  0.0000000 )
                  (  0.0000000 -1.0000000  0.0000000 )       (  0.0000000 )
                  (  0.0000000  0.0000000  1.0000000 )       ( -1.3628500 )


      isym = 16     inv. 180 deg rotation - cart. axis [1,0,0]   

 cryst.   s(16) = (    -1          0          0      )
                  (     1          1          0      )
                  (     0          0          1      )

 cart.    s(16) = ( -1.0000000  0.0000000  0.0000000 )
                  (  0.0000000  1.0000000  0.0000000 )
                  (  0.0000000  0.0000000  1.0000000 )


      isym = 17     inv.  60 deg rotation - cryst. axis [0,0,1]  

 cryst.   s(17) = (    -1         -1          0      )
                  (     1          0          0      )
                  (     0          0         -1      )

 cart.    s(17) = ( -0.5000000  0.8660254  0.0000000 )
                  ( -0.8660254 -0.5000000  0.0000000 )
                  (  0.0000000  0.0000000 -1.0000000 )


      isym = 18     inv.  60 deg rotation - cryst. axis [0,0,-1] 

 cryst.   s(18) = (     0          1          0      )
                  (    -1         -1          0      )
                  (     0          0         -1      )

 cart.    s(18) = ( -0.5000000 -0.8660254  0.0000000 )
                  (  0.8660254 -0.5000000  0.0000000 )
                  (  0.0000000  0.0000000 -1.0000000 )


      isym = 19     inv. 120 deg rotation - cryst. axis [0,0,1]  

 cryst.   s(19) = (     0         -1          0      )    f =(  0.0000000 )
                  (     1          1          0      )       (  0.0000000 )
                  (     0          0         -1      )       (  0.5000000 )

 cart.    s(19) = (  0.5000000  0.8660254  0.0000000 )    f =(  0.0000000 )
                  ( -0.8660254  0.5000000  0.0000000 )       (  0.0000000 )
                  (  0.0000000  0.0000000 -1.0000000 )       (  1.3628500 )


      isym = 20     inv. 120 deg rotation - cryst. axis [0,0,-1] 

 cryst.   s(20) = (     1          1          0      )    f =(  0.0000000 )
                  (    -1          0          0      )       (  0.0000000 )
                  (     0          0         -1      )       (  0.5000000 )

 cart.    s(20) = (  0.5000000 -0.8660254  0.0000000 )    f =(  0.0000000 )
                  (  0.8660254  0.5000000  0.0000000 )       (  0.0000000 )
                  (  0.0000000  0.0000000 -1.0000000 )       (  1.3628500 )


      isym = 21     inv. 180 deg rotation - cryst. axis [1,-1,0] 

 cryst.   s(21) = (     0          1          0      )    f =(  0.0000000 )
                  (     1          0          0      )       (  0.0000000 )
                  (     0          0          1      )       ( -0.5000000 )

 cart.    s(21) = ( -0.5000000  0.8660254  0.0000000 )    f =(  0.0000000 )
                  (  0.8660254  0.5000000  0.0000000 )       (  0.0000000 )
                  (  0.0000000  0.0000000  1.0000000 )       ( -1.3628500 )


      isym = 22     inv. 180 deg rotation - cryst. axis [2,1,0]  

 cryst.   s(22) = (    -1         -1          0      )    f =(  0.0000000 )
                  (     0          1          0      )       (  0.0000000 )
                  (     0          0          1      )       ( -0.5000000 )

 cart.    s(22) = ( -0.5000000 -0.8660254  0.0000000 )    f =(  0.0000000 )
                  ( -0.8660254  0.5000000  0.0000000 )       (  0.0000000 )
                  (  0.0000000  0.0000000  1.0000000 )       ( -1.3628500 )


      isym = 23     inv. 180 deg rotation - cryst. axis [0,1,0]  

 cryst.   s(23) = (     1          1          0      )
                  (     0         -1          0      )
                  (     0          0          1      )

 cart.    s(23) = (  0.5000000  0.8660254  0.0000000 )
                  (  0.8660254 -0.5000000  0.0000000 )
                  (  0.0000000  0.0000000  1.0000000 )


      isym = 24     inv. 180 deg rotation - cryst. axis [1,1,0]  

 cryst.   s(24) = (     0         -1          0      )
                  (    -1          0          0      )
                  (     0          0          1      )

 cart.    s(24) = (  0.5000000 -0.8660254  0.0000000 )
                  ( -0.8660254 -0.5000000  0.0000000 )
                  (  0.0000000  0.0000000  1.0000000 )


     point group D_6h(6/mmm)
     there are 12 classes
     the character table:

       E     2C6   2C3   C2    3C2'  3C2'' i     2S3   2S6   s_h   3s_d  3s_v 
A_1g   1.00  1.00  1.00  1.00  1.00  1.00  1.00  1.00  1.00  1.00  1.00  1.00
A_2g   1.00  1.00  1.00  1.00 -1.00 -1.00  1.00  1.00  1.00  1.00 -1.00 -1.00
B_1g   1.00 -1.00  1.00 -1.00  1.00 -1.00  1.00 -1.00  1.00 -1.00  1.00 -1.00
B_2g   1.00 -1.00  1.00 -1.00 -1.00  1.00  1.00 -1.00  1.00 -1.00 -1.00  1.00
E_1g   2.00  1.00 -1.00 -2.00  0.00  0.00  2.00  1.00 -1.00 -2.00  0.00  0.00
E_2g   2.00 -1.00 -1.00  2.00  0.00  0.00  2.00 -1.00 -1.00  2.00  0.00  0.00
A_1u   1.00  1.00  1.00  1.00  1.00  1.00 -1.00 -1.00 -1.00 -1.00 -1.00 -1.00
A_2u   1.00  1.00  1.00  1.00 -1.00 -1.00 -1.00 -1.00 -1.00 -1.00  1.00  1.00
B_1u   1.00 -1.00  1.00 -1.00  1.00 -1.00 -1.00  1.00 -1.00  1.00 -1.00  1.00
B_2u   1.00 -1.00  1.00 -1.00 -1.00  1.00 -1.00  1.00 -1.00  1.00  1.00 -1.00
E_1u   2.00  1.00 -1.00 -2.00  0.00  0.00 -2.00 -1.00  1.00  2.00  0.00  0.00
E_2u   2.00 -1.00 -1.00  2.00  0.00  0.00 -2.00  1.00  1.00 -2.00  0.00  0.00

     the symmetry operations in each class and the name of the first element:

     E        1
          identity                                               
     2C6      5    6
           60 deg rotation - cryst. axis [0,0,1]                 
     2C3      7    8
          120 deg rotation - cryst. axis [0,0,1]                 
     C2       2
          180 deg rotation - cart. axis [0,0,1]                  
     3C2'     4   12   11
          180 deg rotation - cart. axis [1,0,0]                  
     3C2''    3    9   10
          180 deg rotation - cart. axis [0,1,0]                  
     i       13
          inversion                                              
     2S3     17   18
          inv.  60 deg rotation - cryst. axis [0,0,1]            
     2S6     19   20
          inv. 120 deg rotation - cryst. axis [0,0,1]            
     s_h     14
          inv. 180 deg rotation - cart. axis [0,0,1]             
     3s_d    16   24   23
          inv. 180 deg rotation - cart. axis [1,0,0]             
     3s_v    15   21   22
          inv. 180 deg rotation - cart. axis [0,1,0]             

   Cartesian axes

     site n.     atom                  positions (alat units)
         1           C   tau(   1) = (   0.0000000   0.0000000   0.0000000  )
         2           C   tau(   2) = (   0.0000000   0.0000000   1.3628500  )
         3           C   tau(   3) = (   0.5000005   0.2886748   0.0000000  )
         4           C   tau(   4) = (  -0.0000005   0.5773506   1.3628500  )

   Crystallographic axes

     site n.     atom                  positions (cryst. coord.)
         1           C   tau(   1) = (  0.0000000  0.0000000  0.0000000  )
         2           C   tau(   2) = (  0.0000000  0.0000000  0.5000000  )
         3           C   tau(   3) = (  0.6666670  0.3333330  0.0000000  )
         4           C   tau(   4) = (  0.3333330  0.6666670  0.5000000  )

     number of k points=    38  Marzari-Vanderbilt smearing, width (Ry)=  0.0050
                       cart. coord. in units 2pi/alat
        k(    1) = (   0.0000000   0.0000000   0.0000000), wk =   0.0046296
        k(    2) = (   0.0000000   0.0000000   0.1222927), wk =   0.0092593
        k(    3) = (   0.0000000   0.0962250   0.0000000), wk =   0.0277778
        k(    4) = (   0.0000000   0.0962250   0.1222927), wk =   0.0555556
        k(    5) = (   0.0000000   0.1924501   0.0000000), wk =   0.0277778
        k(    6) = (   0.0000000   0.1924501   0.1222927), wk =   0.0555556
        k(    7) = (   0.0000000   0.2886751   0.0000000), wk =   0.0277778
        k(    8) = (   0.0000000   0.2886751   0.1222927), wk =   0.0555556
        k(    9) = (   0.0000000   0.3849002   0.0000000), wk =   0.0277778
        k(   10) = (   0.0000000   0.3849002   0.1222927), wk =   0.0555556
        k(   11) = (   0.0000000   0.4811252   0.0000000), wk =   0.0277778
        k(   12) = (   0.0000000   0.4811252   0.1222927), wk =   0.0555556
        k(   13) = (   0.0000000  -0.5773503   0.0000000), wk =   0.0138889
        k(   14) = (   0.0000000  -0.5773503   0.1222927), wk =   0.0277778
        k(   15) = (   0.0833333   0.1443376   0.0000000), wk =   0.0277778
        k(   16) = (   0.0833333   0.1443376   0.1222927), wk =   0.0555556
        k(   17) = (   0.0833333   0.2405626   0.0000000), wk =   0.0555556
        k(   18) = (   0.0833333   0.2405626   0.1222927), wk =   0.1111111
        k(   19) = (   0.0833333   0.3367877   0.0000000), wk =   0.0555556
        k(   20) = (   0.0833333   0.3367877   0.1222927), wk =   0.1111111
        k(   21) = (   0.0833333   0.4330127   0.0000000), wk =   0.0555556
        k(   22) = (   0.0833333   0.4330127   0.1222927), wk =   0.1111111
        k(   23) = (   0.0833333   0.5292377   0.0000000), wk =   0.0555556
        k(   24) = (   0.0833333   0.5292377   0.1222927), wk =   0.1111111
        k(   25) = (   0.1666667   0.2886751   0.0000000), wk =   0.0277778
        k(   26) = (   0.1666667   0.2886751   0.1222927), wk =   0.0555556
        k(   27) = (   0.1666667   0.3849002   0.0000000), wk =   0.0555556
        k(   28) = (   0.1666667   0.3849002   0.1222927), wk =   0.1111111
        k(   29) = (   0.1666667   0.4811252   0.0000000), wk =   0.0555556
        k(   30) = (   0.1666667   0.4811252   0.1222927), wk =   0.1111111
        k(   31) = (   0.1666667   0.5773503   0.0000000), wk =   0.0277778
        k(   32) = (   0.1666667   0.5773503   0.1222927), wk =   0.0555556
        k(   33) = (   0.2500000   0.4330127   0.0000000), wk =   0.0277778
        k(   34) = (   0.2500000   0.4330127   0.1222927), wk =   0.0555556
        k(   35) = (   0.2500000   0.5292377   0.0000000), wk =   0.0555556
        k(   36) = (   0.2500000   0.5292377   0.1222927), wk =   0.1111111
        k(   37) = (   0.3333333   0.5773503   0.0000000), wk =   0.0092593
        k(   38) = (   0.3333333   0.5773503   0.1222927), wk =   0.0185185

                       cryst. coord.
        k(    1) = (   0.0000000   0.0000000   0.0000000), wk =   0.0046296
        k(    2) = (   0.0000000   0.0000000   0.3333333), wk =   0.0092593
        k(    3) = (   0.0000000   0.0833333   0.0000000), wk =   0.0277778
        k(    4) = (   0.0000000   0.0833333   0.3333333), wk =   0.0555556
        k(    5) = (   0.0000000   0.1666667   0.0000000), wk =   0.0277778
        k(    6) = (   0.0000000   0.1666667   0.3333333), wk =   0.0555556
        k(    7) = (   0.0000000   0.2500000   0.0000000), wk =   0.0277778
        k(    8) = (   0.0000000   0.2500000   0.3333333), wk =   0.0555556
        k(    9) = (   0.0000000   0.3333333   0.0000000), wk =   0.0277778
        k(   10) = (   0.0000000   0.3333333   0.3333333), wk =   0.0555556
        k(   11) = (   0.0000000   0.4166667   0.0000000), wk =   0.0277778
        k(   12) = (   0.0000000   0.4166667   0.3333333), wk =   0.0555556
        k(   13) = (   0.0000000  -0.5000000   0.0000000), wk =   0.0138889
        k(   14) = (   0.0000000  -0.5000000   0.3333333), wk =   0.0277778
        k(   15) = (   0.0833333   0.0833333   0.0000000), wk =   0.0277778
        k(   16) = (   0.0833333   0.0833333   0.3333333), wk =   0.0555556
        k(   17) = (   0.0833333   0.1666667   0.0000000), wk =   0.0555556
        k(   18) = (   0.0833333   0.1666667   0.3333333), wk =   0.1111111
        k(   19) = (   0.0833333   0.2500000   0.0000000), wk =   0.0555556
        k(   20) = (   0.0833333   0.2500000   0.3333333), wk =   0.1111111
        k(   21) = (   0.0833333   0.3333333   0.0000000), wk =   0.0555556
        k(   22) = (   0.0833333   0.3333333   0.3333333), wk =   0.1111111
        k(   23) = (   0.0833333   0.4166667   0.0000000), wk =   0.0555556
        k(   24) = (   0.0833333   0.4166667   0.3333333), wk =   0.1111111
        k(   25) = (   0.1666667   0.1666667   0.0000000), wk =   0.0277778
        k(   26) = (   0.1666667   0.1666667   0.3333333), wk =   0.0555556
        k(   27) = (   0.1666667   0.2500000   0.0000000), wk =   0.0555556
        k(   28) = (   0.1666667   0.2500000   0.3333333), wk =   0.1111111
        k(   29) = (   0.1666667   0.3333333   0.0000000), wk =   0.0555556
        k(   30) = (   0.1666667   0.3333333   0.3333333), wk =   0.1111111
        k(   31) = (   0.1666667   0.4166667   0.0000000), wk =   0.0277778
        k(   32) = (   0.1666667   0.4166667   0.3333333), wk =   0.0555556
        k(   33) = (   0.2500000   0.2500000   0.0000000), wk =   0.0277778
        k(   34) = (   0.2500000   0.2500000   0.3333333), wk =   0.0555556
        k(   35) = (   0.2500000   0.3333333   0.0000000), wk =   0.0555556
        k(   36) = (   0.2500000   0.3333333   0.3333333), wk =   0.1111111
        k(   37) = (   0.3333333   0.3333333   0.0000000), wk =   0.0092593
        k(   38) = (   0.3333333   0.3333333   0.3333333), wk =   0.0185185

     Dense  grid:    32295 G-vectors     FFT dimensions: (  30,  30,  90)

     Dynamical RAM for                 wfc:       0.09 MB

     Dynamical RAM for     wfc (w. buffer):       3.61 MB

     Dynamical RAM for           str. fact:       0.06 MB

     Dynamical RAM for           local pot:       0.00 MB

     Dynamical RAM for          nlocal pot:       0.25 MB

     Dynamical RAM for                qrad:       0.92 MB

     Dynamical RAM for          rho,v,vnew:       0.43 MB

     Dynamical RAM for               rhoin:       0.14 MB

     Dynamical RAM for            rho*nmix:       0.99 MB

     Dynamical RAM for           G-vectors:       0.26 MB

     Dynamical RAM for          h,s,v(r/c):       0.03 MB

     Dynamical RAM for          <psi|beta>:       0.01 MB

     Dynamical RAM for                 psi:       0.18 MB

     Dynamical RAM for                hpsi:       0.18 MB

     Dynamical RAM for      wfcinit/wfcrot:       0.25 MB

     Estimated static dynamical RAM per process >       6.20 MB

     Estimated max dynamical RAM per process >       7.59 MB

     Estimated total dynamical RAM >      60.74 MB

     Initial potential from superposition of free atoms

     starting charge      15.9998, renormalised to      16.0000


     %%%%%%%%%%%%%%%%%%%%%%%%%%%%%%%%%%%%%%%%%%%%%%%%%%%%%%%%%%%%%%%%%%%%%%%%
     %                                                                      %
     % You are using vdW-DF, which was implemented by the Thonhauser group. %
     % Please cite the following two papers that made this development      %
     % possible and the two reviews that describe the various versions:     %
     %                                                                      %
     %   T. Thonhauser et al., PRL 115, 136402 (2015).                      %
     %   T. Thonhauser et al., PRB 76, 125112 (2007).                       %
     %   K. Berland et al., Rep. Prog. Phys. 78, 066501 (2015).             %
     %   D.C. Langreth et al., J. Phys.: Condens. Matter 21, 084203 (2009). %
     %                                                                      %
     % If you are calculating stress with vdW-DF, please also cite:         %
     %                                                                      %
     %   R. Sabatini et al., J. Phys.: Condens. Matter 24, 424209 (2012).   %
     %                                                                      %
     %%%%%%%%%%%%%%%%%%%%%%%%%%%%%%%%%%%%%%%%%%%%%%%%%%%%%%%%%%%%%%%%%%%%%%%%

     %%%%%%%%%%%%%%%%%%%%%%%%%%%%%%%%%%%%%%%%%%%%%%%%%%%%%%%%%%%%%%%%%%%%%%%%
     %                                                                      %
     %  vdW-DF NEWS:                                                        %
     %                                                                      %
     %  * vdW-DF3 is now available. DOI: 10.1021/acs.jctc.0c00471           %
     %    use with input_dft = 'vdW-DF3-opt1' or 'vdW-DF3-opt2'             %
     %                                                                      %
     %  * Unscreened and range-separated hybrid vdW-DF-cx functionals       %
     %    DOI: 10.1063/1.4986522 and 10.1088/1361-648X/ac2ad2               %
     %    use with input_dft = 'vdW-DF-cx0'    and 'vdW-DF-ahcx'            %
     %  * Unscreened and range-separated hybrid vdW-DF2-b86r functionals    %
     %    DOI: 10.1063/1.4986522 and DOI: 10.1103/PhysRevX.12.041003        %
     %    use with input_dft = 'vdW-DF2-br0' and 'vdW-DF2-ahbr'             %
     %                                                                      %
     %%%%%%%%%%%%%%%%%%%%%%%%%%%%%%%%%%%%%%%%%%%%%%%%%%%%%%%%%%%%%%%%%%%%%%%%


     Carrying out vdW-DF run using the following parameters:
     Nqs    =  20  Npoints =  1024  r_max =  100.000
     q_mesh =  0.00001000  0.04494208  0.09755937  0.15916263
               0.23128650  0.31572767  0.41458969  0.53033537
               0.66584808  0.82450364  1.01025438  1.22772762
               1.48234092  1.78043706  2.12944203  2.53805004
               3.01644009  3.57652955  4.23227104  5.00000000


     -----------------------------------------------
     Non-local corr. energy    =       0.15217375 Ry
     -----------------------------------------------

     Starting wfcs are   16 randomized atomic wfcs

     total cpu time spent up to now is        9.6 secs

     Self-consistent Calculation

     iteration #  1     ecut=   100.00 Ry     beta= 0.70
     Davidson diagonalization with overlap

---- Real-time Memory Report at c_bands before calling an iterative solver
             0 MiB given to the printing process from OS
             0 MiB allocation reported by mallinfo(arena+hblkhd)
             0 MiB available memory on the node where the printing process lives
------------------
     ethr =  1.00E-02,  avg # of iterations =  3.2


     -----------------------------------------------
     Non-local corr. energy    =       0.17957893 Ry
     -----------------------------------------------


     total cpu time spent up to now is       10.5 secs

     total energy              =     -48.22215371 Ry
     estimated scf accuracy    <       0.34127921 Ry

     iteration #  2     ecut=   100.00 Ry     beta= 0.70
     Davidson diagonalization with overlap

---- Real-time Memory Report at c_bands before calling an iterative solver
             0 MiB given to the printing process from OS
             0 MiB allocation reported by mallinfo(arena+hblkhd)
             0 MiB available memory on the node where the printing process lives
------------------
     ethr =  2.13E-03,  avg # of iterations =  3.0


     -----------------------------------------------
     Non-local corr. energy    =       0.18013951 Ry
     -----------------------------------------------


     total cpu time spent up to now is       11.4 secs

     total energy              =     -48.26458555 Ry
     estimated scf accuracy    <       0.00446242 Ry

     iteration #  3     ecut=   100.00 Ry     beta= 0.70
     Davidson diagonalization with overlap

---- Real-time Memory Report at c_bands before calling an iterative solver
             0 MiB given to the printing process from OS
             0 MiB allocation reported by mallinfo(arena+hblkhd)
             0 MiB available memory on the node where the printing process lives
------------------
     c_bands:  1 eigenvalues not converged
     ethr =  2.79E-05,  avg # of iterations =  8.9


     -----------------------------------------------
     Non-local corr. energy    =       0.17963220 Ry
     -----------------------------------------------


     total cpu time spent up to now is       12.9 secs

     total energy              =     -48.26570716 Ry
     estimated scf accuracy    <       0.00037167 Ry

     iteration #  4     ecut=   100.00 Ry     beta= 0.70
     Davidson diagonalization with overlap

---- Real-time Memory Report at c_bands before calling an iterative solver
             0 MiB given to the printing process from OS
             0 MiB allocation reported by mallinfo(arena+hblkhd)
             0 MiB available memory on the node where the printing process lives
------------------
     c_bands:  1 eigenvalues not converged
     ethr =  2.32E-06,  avg # of iterations =  4.7


     -----------------------------------------------
     Non-local corr. energy    =       0.17988852 Ry
     -----------------------------------------------


     total cpu time spent up to now is       13.8 secs

     total energy              =     -48.26575115 Ry
     estimated scf accuracy    <       0.00001772 Ry

     iteration #  5     ecut=   100.00 Ry     beta= 0.70
     Davidson diagonalization with overlap

---- Real-time Memory Report at c_bands before calling an iterative solver
             0 MiB given to the printing process from OS
             0 MiB allocation reported by mallinfo(arena+hblkhd)
             0 MiB available memory on the node where the printing process lives
------------------
     ethr =  1.11E-07,  avg # of iterations =  2.8


     -----------------------------------------------
     Non-local corr. energy    =       0.17991754 Ry
     -----------------------------------------------


     total cpu time spent up to now is       14.7 secs

     End of self-consistent calculation

          k = 0.0000 0.0000 0.0000 (  4055 PWs)   bands (ev):

   -12.7364 -12.4320  -1.6732   0.3417   3.8311   3.8312   3.8494   3.8495
    10.8494  15.2787  15.2788  15.3321

     occupation numbers 
     1.0000   1.0000   1.0000   1.0000   1.0000   1.0000   1.0000   1.0000
     0.0000   0.0000   0.0000   0.0000

          k = 0.0000 0.0000 0.1223 (  4078 PWs)   bands (ev):

   -12.6641 -12.5121  -1.2391  -0.2487   3.8357   3.8358   3.8449   3.8449
    12.1396  15.2917  15.2918  15.3185

     occupation numbers 
     1.0000   1.0000   1.0000   1.0000   1.0000   1.0000   1.0000   1.0000
     0.0000   0.0000   0.0000   0.0000

          k = 0.0000 0.0962 0.0000 (  4057 PWs)   bands (ev):

   -12.5714 -12.2701  -1.4717   0.5299   3.1760   3.2097   3.4897   3.5179
    11.0498  15.3284  15.4129  15.9701

     occupation numbers 
     1.0000   1.0000   1.0000   1.0000   1.0000   1.0000   1.0000   1.0000
     0.0000   0.0000   0.0000   0.0000

          k = 0.0000 0.0962 0.1223 (  4067 PWs)   bands (ev):

   -12.4998 -12.3493  -1.0401  -0.0561   3.1844   3.2013   3.4967   3.5108
    12.3299  15.1559  15.3923  15.4293

     occupation numbers 
     1.0000   1.0000   1.0000   1.0000   1.0000   1.0000   1.0000   1.0000
     0.0000   0.0000   0.0000   0.0000

          k = 0.0000 0.1925 0.0000 (  4071 PWs)   bands (ev):

   -12.0783 -11.7861  -0.8714   1.0879   1.5295   1.5940   2.6942   2.7346
    11.6524  15.2214  15.4036  16.0140

     occupation numbers 
     1.0000   1.0000   1.0000   1.0000   1.0000   1.0000   1.0000   1.0000
     0.0000   0.0000   0.0000   0.0000

          k = 0.0000 0.1925 0.1223 (  4061 PWs)   bands (ev):

   -12.0087 -11.8628  -0.4480   0.5158   1.5456   1.5778   2.7043   2.7244
    12.8978  15.1894  15.3510  15.7763

     occupation numbers 
     1.0000   1.0000   1.0000   1.0000   1.0000   1.0000   1.0000   1.0000
     0.0000   0.0000   0.0000   0.0000

          k = 0.0000 0.2887 0.0000 (  4063 PWs)   bands (ev):

   -11.2627 -10.9857  -0.5798  -0.4801   0.1123   1.8123   1.8604   1.9911
    12.6525  13.7952  14.4439  14.8826

     occupation numbers 
     1.0000   1.0000   1.0000   1.0000   1.0000   1.0000   1.0000   1.0000
     0.0000   0.0000   0.0000   0.0000

          k = 0.0000 0.2887 0.1223 (  4052 PWs)   bands (ev):

   -11.1966 -11.0582  -0.5554  -0.5055   0.5209   1.4463   1.8243   1.8483
    13.6607  14.1082  14.2350  14.9385

     occupation numbers 
     1.0000   1.0000   1.0000   1.0000   1.0000   1.0000   1.0000   1.0000
     0.0000   0.0000   0.0000   0.0000

          k = 0.0000 0.3849 0.0000 (  4053 PWs)   bands (ev):

   -10.1371  -9.8808  -2.7943  -2.6597   1.0773   1.1297   1.4403   3.1717
    11.3589  12.2813  14.0073  14.5259

     occupation numbers 
     1.0000   1.0000   1.0000   1.0000   1.0000   1.0000   1.0000   1.0000
     0.0000   0.0000   0.0000   0.0000

          k = 0.0000 0.3849 0.1223 (  4053 PWs)   bands (ev):

   -10.0756  -9.9476  -2.7615  -2.6942   1.0903   1.1165   1.8223   2.6777
    11.5364  12.0038  14.5661  14.6881

     occupation numbers 
     1.0000   1.0000   1.0000   1.0000   1.0000   1.0000   1.0000   1.0000
     0.0000   0.0000   0.0000   0.0000

          k = 0.0000 0.4811 0.0000 (  4025 PWs)   bands (ev):

    -8.7318  -8.5038  -4.9030  -4.7390   0.6033   0.6579   2.9934   4.3853
     9.2137  10.2311  14.2329  14.6148

     occupation numbers 
     1.0000   1.0000   1.0000   1.0000   1.0000   1.0000   1.0000   1.0000
     0.0000   0.0000   0.0000   0.0000

          k = 0.0000 0.4811 0.1223 (  4042 PWs)   bands (ev):

    -8.6768  -8.5629  -4.8633  -4.7814   0.6169   0.6442   3.3199   4.0158
     9.3812   9.8963  14.3287  14.5202

     occupation numbers 
     1.0000   1.0000   1.0000   1.0000   1.0000   1.0000   1.0000   1.0000
     0.0000   0.0000   0.0000   0.0000

          k = 0.0000-0.5774 0.0000 (  4016 PWs)   bands (ev):

    -7.4253  -7.3123  -6.3550  -6.2694   0.4406   0.4959   4.0964   4.7957
     8.3658   9.0616  14.1425  14.5475

     occupation numbers 
     1.0000   1.0000   1.0000   1.0000   1.0000   1.0000   1.0000   1.0000
     0.0000   0.0000   0.0000   0.0000

          k = 0.0000-0.5774 0.1223 (  4048 PWs)   bands (ev):

    -7.3933  -7.3362  -6.3412  -6.2978   0.4543   0.4820   4.3151   4.6782
     8.3764   8.7370  14.2399  14.4430

     occupation numbers 
     1.0000   1.0000   1.0000   1.0000   1.0000   1.0000   1.0000   1.0000
     0.0000   0.0000   0.0000   0.0000

          k = 0.0833 0.1443 0.0000 (  4073 PWs)   bands (ev):

   -12.2424 -11.9471  -1.0707   0.9032   2.1457   2.1782   2.8190   2.8427
    11.4523  15.6063  15.7218  16.5414

     occupation numbers 
     1.0000   1.0000   1.0000   1.0000   1.0000   1.0000   1.0000   1.0000
     0.0000   0.0000   0.0000   0.0000

          k = 0.0833 0.1443 0.1223 (  4059 PWs)   bands (ev):

   -12.1721 -12.0247  -0.6445   0.3263   2.1542   2.1704   2.8245   2.8364
    12.7115  15.4118  15.6936  15.7922

     occupation numbers 
     1.0000   1.0000   1.0000   1.0000   1.0000   1.0000   1.0000   1.0000
     0.0000   0.0000   0.0000   0.0000

          k = 0.0833 0.2406 0.0000 (  4065 PWs)   bands (ev):

   -11.5880 -11.3050  -0.2779   0.4236   0.4922   1.6355   1.8142   1.8584
    12.2574  14.7263  15.1839  15.6856

     occupation numbers 
     1.0000   1.0000   1.0000   1.0000   1.0000   1.0000   1.0000   1.0000
     0.0000   0.0000   0.0000   0.0000

          k = 0.0833 0.2406 0.1223 (  4054 PWs)   bands (ev):

   -11.5205 -11.3791   0.1364   0.4406   0.4754   1.0792   1.8250   1.8470
    13.4626  14.8301  15.0318  15.6764

     occupation numbers 
     1.0000   1.0000   1.0000   1.0000   1.0000   1.0000   1.0000   1.0000
     0.0000   0.0000   0.0000   0.0000

          k = 0.0833 0.3368 0.0000 (  4068 PWs)   bands (ev):

   -10.6173 -10.3521  -1.6638  -1.5530   0.8825   0.9215   0.9807   2.6875
    12.4640  13.1743  13.4537  15.3810

     occupation numbers 
     1.0000   1.0000   1.0000   1.0000   1.0000   1.0000   1.0000   1.0000
     0.0000   0.0000   0.0000   0.0000

          k = 0.0833 0.3368 0.1223 (  4053 PWs)   bands (ev):

   -10.5538 -10.4214  -1.6366  -1.5812   0.9360   0.9656   1.2774   2.1677
    12.6043  12.9706  14.5985  15.4441

     occupation numbers 
     1.0000   1.0000   1.0000   1.0000   1.0000   1.0000   1.0000   1.0000
     0.0000   0.0000   0.0000   0.0000

          k = 0.0833 0.4330 0.0000 (  4046 PWs)   bands (ev):

    -9.3490  -9.1076  -3.7982  -3.6514   0.2834   0.3494   2.3464   3.9405
    10.1648  11.1000  14.9281  15.1217

     occupation numbers 
     1.0000   1.0000   1.0000   1.0000   1.0000   1.0000   1.0000   1.0000
     0.0000   0.0000   0.0000   0.0000

          k = 0.0833 0.4330 0.1223 (  4046 PWs)   bands (ev):

    -9.2909  -9.1704  -3.7624  -3.6890   0.2997   0.3327   2.7045   3.4950
    10.3483  10.8209  15.1348  15.3010

     occupation numbers 
     1.0000   1.0000   1.0000   1.0000   1.0000   1.0000   1.0000   1.0000
     0.0000   0.0000   0.0000   0.0000

          k = 0.0833 0.5292 0.0000 (  4041 PWs)   bands (ev):

    -7.8550  -7.6556  -5.7396  -5.5776  -0.0465   0.0223   3.8662   4.8907
     8.5409   9.3399  14.8646  15.2879

     occupation numbers 
     1.0000   1.0000   1.0000   1.0000   1.0000   1.0000   1.0000   1.0000
     0.0000   0.0000   0.0000   0.0000

          k = 0.0833 0.5292 0.1223 (  4029 PWs)   bands (ev):

    -7.8063  -7.7066  -5.7012  -5.6202  -0.0295   0.0049   4.1364   4.6587
     8.6204   9.0339  14.9646  15.1764

     occupation numbers 
     1.0000   1.0000   1.0000   1.0000   1.0000   1.0000   1.0000   1.0000
     0.0000   0.0000   0.0000   0.0000

          k = 0.1667 0.2887 0.0000 (  4059 PWs)   bands (ev):

   -10.7785 -10.5103  -0.8994  -0.8445   0.4626   0.5026   0.6944   2.5226
    12.9975  13.2622  13.4880  16.8490

     occupation numbers 
     1.0000   1.0000   1.0000   1.0000   1.0000   1.0000   1.0000   1.0000
     0.0000   0.0000   0.0000   0.0000

          k = 0.1667 0.2887 0.1223 (  4057 PWs)   bands (ev):

   -10.7143 -10.5804  -0.8852  -0.8578   0.4714   0.4914   1.0934   1.9946
    13.1166  13.3573  14.4041  16.6683

     occupation numbers 
     1.0000   1.0000   1.0000   1.0000   1.0000   1.0000   1.0000   1.0000
     0.0000   0.0000   0.0000   0.0000

          k = 0.1667 0.3849 0.0000 (  4045 PWs)   bands (ev):

    -9.6637  -9.4163  -2.6455  -2.5409  -0.6080  -0.5359   2.0081   3.6887
    10.9837  11.6247  14.6444  16.9448

     occupation numbers 
     1.0000   1.0000   1.0000   1.0000   1.0000   1.0000   1.0000   1.0000
     0.0000   0.0000   0.0000   0.0000

          k = 0.1667 0.3849 0.1223 (  4043 PWs)   bands (ev):

    -9.6043  -9.4807  -2.6196  -2.5672  -0.5909  -0.5548   2.3801   3.2110
    11.1353  11.4570  15.6306  16.9747

     occupation numbers 
     1.0000   1.0000   1.0000   1.0000   1.0000   1.0000   1.0000   1.0000
     0.0000   0.0000   0.0000   0.0000

          k = 0.1667 0.4811 0.0000 (  4036 PWs)   bands (ev):

    -8.2784  -8.0594  -4.5704  -4.4223  -1.1940  -1.1031   3.5561   4.9260
     9.0446   9.8089  16.3415  16.7063

     occupation numbers 
     1.0000   1.0000   1.0000   1.0000   1.0000   1.0000   1.0000   1.0000
     0.0000   0.0000   0.0000   0.0000

          k = 0.1667 0.4811 0.1223 (  4037 PWs)   bands (ev):

    -8.2254  -8.1160  -4.5344  -4.4603  -1.1719  -1.1265   3.8761   4.5604
     9.1941   9.5832  16.7689  16.8505

     occupation numbers 
     1.0000   1.0000   1.0000   1.0000   1.0000   1.0000   1.0000   1.0000
     0.0000   0.0000   0.0000   0.0000

          k = 0.1667 0.5774 0.0000 (  4036 PWs)   bands (ev):

    -7.0026  -6.8942  -5.9540  -5.8787  -1.3813  -1.2859   4.6953   5.3800
     8.2978   8.6141  16.5811  17.1458

     occupation numbers 
     1.0000   1.0000   1.0000   1.0000   1.0000   1.0000   1.0000   1.0000
     0.0000   0.0000   0.0000   0.0000

          k = 0.1667 0.5774 0.1223 (  4030 PWs)   bands (ev):

    -6.9720  -6.9173  -5.9421  -5.9039  -1.3581  -1.3104   4.9139   5.2713
     8.2488   8.4289  16.6778  16.9450

     occupation numbers 
     1.0000   1.0000   1.0000   1.0000   1.0000   1.0000   1.0000   1.0000
     0.0000   0.0000   0.0000   0.0000

          k = 0.2500 0.4330 0.0000 (  4043 PWs)   bands (ev):

    -8.4275  -8.2043  -3.6684  -3.5918  -2.0740  -2.0172   3.4343   4.9127
     9.3794   9.9954  16.1691  18.6008

     occupation numbers 
     1.0000   1.0000   1.0000   1.0000   1.0000   1.0000   1.0000   1.0000
     0.0000   0.0000   0.0000   0.0000

          k = 0.2500 0.4330 0.1223 (  4045 PWs)   bands (ev):

    -8.3737  -8.2621  -3.6485  -3.6101  -2.0623  -2.0338   3.7696   4.5036
     9.5340   9.8394  16.7204  17.6690

     occupation numbers 
     1.0000   1.0000   1.0000   1.0000   1.0000   1.0000   1.0000   1.0000
     0.0000   0.0000   0.0000   0.0000

          k = 0.2500 0.5292 0.0000 (  4016 PWs)   bands (ev):

    -6.9911  -6.8091  -5.1044  -4.9819  -2.8009  -2.7054   4.9819   6.0128
     7.9427   8.4969  17.8860  18.5576

     occupation numbers 
     1.0000   1.0000   1.0000   1.0000   1.0000   1.0000   1.0000   1.0000
     0.0000   0.0000   0.0000   0.0000

          k = 0.2500 0.5292 0.1223 (  4030 PWs)   bands (ev):

    -6.9465  -6.8555  -5.0747  -5.0134  -2.7788  -2.7310   5.2494   5.7750
     8.0390   8.3173  17.2282  17.4244

     occupation numbers 
     1.0000   1.0000   1.0000   1.0000   1.0000   1.0000   1.0000   1.0000
     0.0000   0.0000   0.0000   0.0000

          k = 0.3333 0.5774 0.0000 (  4020 PWs)   bands (ev):

    -5.7864  -5.6875  -5.6875  -5.5951  -3.6384  -3.6384   6.2230   6.8488
     6.8488   7.6018  17.8747  17.8748

     occupation numbers 
     1.0000   1.0000   1.0000   1.0000   1.0000   1.0000   1.0000   0.6894
     0.6894   0.0000   0.0000   0.0000

          k = 0.3333 0.5774 0.1223 (  4014 PWs)   bands (ev):

    -5.7401  -5.6859  -5.6859  -5.6445  -3.6422  -3.6422   6.5331   6.8751
     6.8751   7.2169  17.0395  17.0395

     occupation numbers 
     1.0000   1.0000   1.0000   1.0000   1.0000   1.0000   1.0000   0.4053
     0.4053   0.0000   0.0000   0.0000

     the Fermi energy is     6.8755 ev

!    total energy              =     -48.26575561 Ry
     estimated scf accuracy    <       0.00000029 Ry
     smearing contrib. (-TS)   =      -0.00004221 Ry
     internal energy E=F+TS    =     -48.26571339 Ry

     The total energy is F=E-TS. E is the sum of the following terms:
     one-electron contribution =     -10.72082930 Ry
     hartree contribution      =      13.43460082 Ry
     xc contribution           =     -17.22811510 Ry
     ewald contribution        =     -33.75136981 Ry

     convergence has been achieved in   5 iterations


     -----------------------------------------------
     Non-local corr. energy    =       0.17991754 Ry
     -----------------------------------------------


     Forces acting on atoms (cartesian axes, Ry/au):

     atom    1 type  1   force =     0.00000000    0.00000000    0.00000000
     atom    2 type  1   force =     0.00000000    0.00000000    0.00000000
     atom    3 type  1   force =     0.00000000   -0.00000000    0.00000000
     atom    4 type  1   force =     0.00000000    0.00000000    0.00000000
     The non-local contrib.  to forces
     atom    1 type  1   force =    -0.00000000    0.00000000    0.00000000
     atom    2 type  1   force =     0.00000000   -0.00000000    0.00000000
     atom    3 type  1   force =     0.00000000   -0.00000000    0.00000000
     atom    4 type  1   force =     0.00000000   -0.00000000    0.00000000
     The ionic contribution  to forces
     atom    1 type  1   force =     0.00000851   -0.00000491   -0.00000000
     atom    2 type  1   force =    -0.00000851    0.00000491    0.00000000
     atom    3 type  1   force =    -0.00000853    0.00000492   -0.00000000
     atom    4 type  1   force =     0.00000853   -0.00000492    0.00000000
     The local contribution  to forces
     atom    1 type  1   force =     0.00000000    0.00000000    0.00000000
     atom    2 type  1   force =    -0.00000000   -0.00000000    0.00000000
     atom    3 type  1   force =    -0.00000679    0.00000392    0.00000000
     atom    4 type  1   force =     0.00000679   -0.00000392    0.00000000
     The core correction contribution to forces
     atom    1 type  1   force =    -0.00000000    0.00000000    0.00000000
     atom    2 type  1   force =     0.00000000   -0.00000000   -0.00000000
     atom    3 type  1   force =     0.00000053   -0.00000031   -0.00000000
     atom    4 type  1   force =    -0.00000053    0.00000031   -0.00000000
     The Hubbard contrib.    to forces
     atom    1 type  1   force =     0.00000000    0.00000000    0.00000000
     atom    2 type  1   force =     0.00000000    0.00000000    0.00000000
     atom    3 type  1   force =     0.00000000    0.00000000    0.00000000
     atom    4 type  1   force =     0.00000000    0.00000000    0.00000000
     The SCF correction term to forces
     atom    1 type  1   force =    -0.00000000    0.00000000   -0.00000000
     atom    2 type  1   force =     0.00000000   -0.00000000    0.00000000
     atom    3 type  1   force =    -0.00000000    0.00000000   -0.00000000
     atom    4 type  1   force =     0.00000000   -0.00000000    0.00000000

     Total force =     0.000000     Total SCF correction =     0.000000


     Computing stress (Cartesian axis) and pressure



     -----------------------------------------------
     Non-local corr. energy    =       0.17991754 Ry
     -----------------------------------------------

          total   stress  (Ry/bohr**3)                   (kbar)     P=        0.80
   0.00002483   0.00000000   0.00000000            3.65        0.00        0.00
   0.00000000   0.00002483   0.00000000            0.00        3.65        0.00
   0.00000000   0.00000000  -0.00003334            0.00        0.00       -4.90

     kinetic stress (kbar)  13286.08      0.00      0.00
                                0.00  13286.08      0.00
                                0.00      0.00  14624.02

     local   stress (kbar) -19631.28      0.01      0.00
                                0.01 -19631.27      0.00
                                0.00      0.00  23601.73

     nonloc. stress (kbar)  -1350.42     -0.00     -0.00
                               -0.00  -1350.42      0.00
                               -0.00      0.00  -1127.65

     hartree stress (kbar)   7232.69     -0.00      0.00
                               -0.00   7232.69     -0.00
                                0.00     -0.00  -6215.70

     exc-cor stress (kbar)  -1057.00     -0.00     -0.00
                               -0.00  -1057.00     -0.00
                               -0.00     -0.00  -1226.55

     corecor stress (kbar)  -2014.73      0.00     -0.00
                                0.00  -2014.73      0.00
                               -0.00      0.00  -1959.39

     ewald   stress (kbar)   3528.29     -0.02     -0.00
                               -0.02   3528.26     -0.00
                               -0.00     -0.00 -27781.97

     hubbard stress (kbar)      0.00      0.00      0.00
                                0.00      0.00      0.00
                                0.00      0.00      0.00

     DFT-D   stress (kbar)      0.00      0.00      0.00
                                0.00      0.00      0.00
                                0.00      0.00      0.00

     XDM     stress (kbar)      0.00      0.00      0.00
                                0.00      0.00      0.00
                                0.00      0.00      0.00

     dft-nl  stress (kbar)     10.03      0.00      0.00
                                0.00     10.03     -0.00
                                0.00     -0.00     80.61

     TS-vdW  stress (kbar)      0.00      0.00      0.00
                                0.00      0.00      0.00
                                0.00      0.00      0.00

     MDB     stress (kbar)      0.00      0.00      0.00
                                0.00      0.00      0.00
                                0.00      0.00      0.00

     3D-RISM stress (kbar)      0.00      0.00      0.00
                                0.00      0.00      0.00
                                0.00      0.00      0.00


     BFGS Geometry Optimization
     Energy error            =      0.0E+00 Ry
     Gradient error          =      8.2E-23 Ry/Bohr
     Cell gradient error     =      4.9E+00 kbar

     number of scf cycles    =   1
     number of bfgs steps    =   0

     enthalpy           new  =     -48.2657556051 Ry

     new trust radius        =       0.0025801938 bohr
     new conv_thr            =       0.0000010000 Ry

     new unit-cell volume =    239.65830 a.u.^3 (    35.51370 Ang^3 )
     density =      2.24643 g/cm^3

CELL_PARAMETERS (alat=  4.66447000)
   1.000620768   0.000000000   0.000000000
  -0.500310384   0.866563005   0.000000000
   0.000000000   0.000000000   2.723428082

ATOMIC_POSITIONS (crystal)
C             0.0000000000        0.0000000000        0.0000000000    0   0   0
C             0.0000000000        0.0000000000        0.5000000000
C             0.6666670000        0.3333330000        0.0000000000    0   0   0
C             0.3333330000        0.6666670000        0.5000000000



     Writing config-only to output data dir ./tmp/CBULK_AB_PBE_vdW.save/
     NEW-OLD atomic charge density approx. for the potential


     -----------------------------------------------
     Non-local corr. energy    =       0.17995501 Ry
     -----------------------------------------------

     extrapolated charge   16.00652, renormalised to   16.00000

     total cpu time spent up to now is       16.0 secs

     Self-consistent Calculation

     iteration #  1     ecut=   100.00 Ry     beta= 0.70
     Davidson diagonalization with overlap

---- Real-time Memory Report at c_bands before calling an iterative solver
             0 MiB given to the printing process from OS
             0 MiB allocation reported by mallinfo(arena+hblkhd)
             0 MiB available memory on the node where the printing process lives
------------------
     ethr =  1.00E-06,  avg # of iterations =  2.0

     Threshold (ethr) on eigenvalues was too large:
     Diagonalizing with lowered threshold

     Davidson diagonalization with overlap

---- Real-time Memory Report at c_bands before calling an iterative solver
             0 MiB given to the printing process from OS
             0 MiB allocation reported by mallinfo(arena+hblkhd)
             0 MiB available memory on the node where the printing process lives
------------------
     ethr =  2.98E-08,  avg # of iterations =  1.0


     -----------------------------------------------
     Non-local corr. energy    =       0.17980534 Ry
     -----------------------------------------------


     total cpu time spent up to now is       17.3 secs

     total energy              =     -48.26575899 Ry
     estimated scf accuracy    <       0.00000504 Ry

     iteration #  2     ecut=   100.00 Ry     beta= 0.70
     Davidson diagonalization with overlap

---- Real-time Memory Report at c_bands before calling an iterative solver
             0 MiB given to the printing process from OS
             0 MiB allocation reported by mallinfo(arena+hblkhd)
             0 MiB available memory on the node where the printing process lives
------------------
     ethr =  3.15E-08,  avg # of iterations =  2.7


     -----------------------------------------------
     Non-local corr. energy    =       0.17984779 Ry
     -----------------------------------------------


     total cpu time spent up to now is       18.1 secs

     total energy              =     -48.26576272 Ry
     estimated scf accuracy    <       0.00000148 Ry

     iteration #  3     ecut=   100.00 Ry     beta= 0.70
     Davidson diagonalization with overlap

---- Real-time Memory Report at c_bands before calling an iterative solver
             0 MiB given to the printing process from OS
             0 MiB allocation reported by mallinfo(arena+hblkhd)
             0 MiB available memory on the node where the printing process lives
------------------
     ethr =  9.27E-09,  avg # of iterations =  1.6


     -----------------------------------------------
     Non-local corr. energy    =       0.17988296 Ry
     -----------------------------------------------


     total cpu time spent up to now is       18.8 secs

     End of self-consistent calculation

          k = 0.0000 0.0000 0.0000 (  4055 PWs)   bands (ev):

   -12.7281 -12.4215  -1.6696   0.3545   3.8246   3.8246   3.8431   3.8432
    10.8607  15.2601  15.2602  15.3140

     occupation numbers 
     1.0000   1.0000   1.0000   1.0000   1.0000   1.0000   1.0000   1.0000
     0.0000   0.0000   0.0000   0.0000

          k = 0.0000 0.0000 0.1224 (  4078 PWs)   bands (ev):

   -12.6552 -12.5022  -1.2336  -0.2388   3.8292   3.8293   3.8385   3.8385
    12.1544  15.2732  15.2733  15.3002

     occupation numbers 
     1.0000   1.0000   1.0000   1.0000   1.0000   1.0000   1.0000   1.0000
     0.0000   0.0000   0.0000   0.0000

          k =-0.0000 0.0962 0.0000 (  4057 PWs)   bands (ev):

   -12.5632 -12.2598  -1.4684   0.5424   3.1699   3.2039   3.4838   3.5122
    11.0608  15.3094  15.3944  15.9503

     occupation numbers 
     1.0000   1.0000   1.0000   1.0000   1.0000   1.0000   1.0000   1.0000
     0.0000   0.0000   0.0000   0.0000

          k =-0.0000 0.0962 0.1224 (  4067 PWs)   bands (ev):

   -12.4911 -12.3396  -1.0350  -0.0465   3.1784   3.1954   3.4909   3.5051
    12.3443  15.1640  15.3739  15.4220

     occupation numbers 
     1.0000   1.0000   1.0000   1.0000   1.0000   1.0000   1.0000   1.0000
     0.0000   0.0000   0.0000   0.0000

          k =-0.0000 0.1923 0.0000 (  4071 PWs)   bands (ev):

   -12.0706 -11.7764  -0.8689   1.0993   1.5246   1.5897   2.6897   2.7305
    11.6624  15.2002  15.3838  15.9905

     occupation numbers 
     1.0000   1.0000   1.0000   1.0000   1.0000   1.0000   1.0000   1.0000
     0.0000   0.0000   0.0000   0.0000

          k =-0.0000 0.1923 0.1224 (  4061 PWs)   bands (ev):

   -12.0005 -11.8536  -0.4437   0.5244   1.5408   1.5733   2.6998   2.7203
    12.9109  15.1731  15.3308  15.7856

     occupation numbers 
     1.0000   1.0000   1.0000   1.0000   1.0000   1.0000   1.0000   1.0000
     0.0000   0.0000   0.0000   0.0000

          k =-0.0000 0.2885 0.0000 (  4063 PWs)   bands (ev):

   -11.2560 -10.9769  -0.5828  -0.4822   0.1134   1.8093   1.8579   2.0008
    12.6607  13.7761  14.4278  14.8595

     occupation numbers 
     1.0000   1.0000   1.0000   1.0000   1.0000   1.0000   1.0000   1.0000
     0.0000   0.0000   0.0000   0.0000

          k =-0.0000 0.2885 0.1224 (  4052 PWs)   bands (ev):

   -11.1893 -11.0499  -0.5582  -0.5079   0.5237   1.4533   1.8214   1.8457
    13.6595  14.1008  14.2182  14.9168

     occupation numbers 
     1.0000   1.0000   1.0000   1.0000   1.0000   1.0000   1.0000   1.0000
     0.0000   0.0000   0.0000   0.0000

          k =-0.0000 0.3847 0.0000 (  4053 PWs)   bands (ev):

   -10.1316  -9.8734  -2.7951  -2.6594   1.0755   1.1284   1.4395   3.1787
    11.3445  12.2705  14.0110  14.5027

     occupation numbers 
     1.0000   1.0000   1.0000   1.0000   1.0000   1.0000   1.0000   1.0000
     0.0000   0.0000   0.0000   0.0000

          k =-0.0000 0.3847 0.1224 (  4053 PWs)   bands (ev):

   -10.0697  -9.9407  -2.7620  -2.6941   1.0886   1.1151   1.8231   2.6824
    11.5228  11.9920  14.5438  14.6691

     occupation numbers 
     1.0000   1.0000   1.0000   1.0000   1.0000   1.0000   1.0000   1.0000
     0.0000   0.0000   0.0000   0.0000

          k =-0.0000 0.4808 0.0000 (  4025 PWs)   bands (ev):

    -8.7280  -8.4984  -4.9013  -4.7360   0.6022   0.6574   2.9906   4.3885
     9.2044  10.2250  14.2080  14.5925

     occupation numbers 
     1.0000   1.0000   1.0000   1.0000   1.0000   1.0000   1.0000   1.0000
     0.0000   0.0000   0.0000   0.0000

          k =-0.0000 0.4808 0.1224 (  4042 PWs)   bands (ev):

    -8.6727  -8.5579  -4.8613  -4.7787   0.6159   0.6435   3.3185   4.0174
     9.3720   9.8889  14.3043  14.4971

     occupation numbers 
     1.0000   1.0000   1.0000   1.0000   1.0000   1.0000   1.0000   1.0000
     0.0000   0.0000   0.0000   0.0000

          k = 0.0000-0.5770 0.0000 (  4016 PWs)   bands (ev):

    -7.4249  -7.3110  -6.3489  -6.2627   0.4397   0.4957   4.0924   4.7947
     8.3612   9.0572  14.1173  14.5247

     occupation numbers 
     1.0000   1.0000   1.0000   1.0000   1.0000   1.0000   1.0000   1.0000
     0.0000   0.0000   0.0000   0.0000

          k = 0.0000-0.5770 0.1224 (  4048 PWs)   bands (ev):

    -7.3926  -7.3352  -6.3351  -6.2914   0.4536   0.4816   4.3124   4.6772
     8.3705   8.7315  14.2153  14.4196

     occupation numbers 
     1.0000   1.0000   1.0000   1.0000   1.0000   1.0000   1.0000   1.0000
     0.0000   0.0000   0.0000   0.0000

          k = 0.0833 0.1442 0.0000 (  4073 PWs)   bands (ev):

   -12.2345 -11.9372  -1.0680   0.9149   2.1403   2.1731   2.8144   2.8384
    11.4627  15.5870  15.7029  16.5165

     occupation numbers 
     1.0000   1.0000   1.0000   1.0000   1.0000   1.0000   1.0000   1.0000
     0.0000   0.0000   0.0000   0.0000

          k = 0.0833 0.1442 0.1224 (  4059 PWs)   bands (ev):

   -12.1638 -12.0153  -0.6399   0.3352   2.1488   2.1652   2.8199   2.8319
    12.7251  15.4138  15.6745  15.7899

     occupation numbers 
     1.0000   1.0000   1.0000   1.0000   1.0000   1.0000   1.0000   1.0000
     0.0000   0.0000   0.0000   0.0000

          k = 0.0833 0.2404 0.0000 (  4065 PWs)   bands (ev):

   -11.5809 -11.2958  -0.2762   0.4194   0.4887   1.6459   1.8112   1.8559
    12.2664  14.7052  15.1653  15.6636

     occupation numbers 
     1.0000   1.0000   1.0000   1.0000   1.0000   1.0000   1.0000   1.0000
     0.0000   0.0000   0.0000   0.0000

          k = 0.0833 0.2404 0.1224 (  4054 PWs)   bands (ev):

   -11.5129 -11.3705   0.1398   0.4366   0.4718   1.0868   1.8220   1.8444
    13.4742  14.8095  15.0128  15.6602

     occupation numbers 
     1.0000   1.0000   1.0000   1.0000   1.0000   1.0000   1.0000   1.0000
     0.0000   0.0000   0.0000   0.0000

          k = 0.0833 0.3366 0.0000 (  4068 PWs)   bands (ev):

   -10.6112 -10.3441  -1.6659  -1.5541   0.8825   0.9197   0.9795   2.6957
    12.4473  13.1608  13.4605  15.3568

     occupation numbers 
     1.0000   1.0000   1.0000   1.0000   1.0000   1.0000   1.0000   1.0000
     0.0000   0.0000   0.0000   0.0000

          k = 0.0833 0.3366 0.1224 (  4053 PWs)   bands (ev):

   -10.5473 -10.4139  -1.6385  -1.5826   0.9344   0.9643   1.2791   2.1734
    12.5885  12.9562  14.6061  15.4213

     occupation numbers 
     1.0000   1.0000   1.0000   1.0000   1.0000   1.0000   1.0000   1.0000
     0.0000   0.0000   0.0000   0.0000

          k = 0.0833 0.4327 0.0000 (  4046 PWs)   bands (ev):

    -9.3444  -9.1013  -3.7979  -3.6500   0.2825   0.3491   2.3443   3.9456
    10.1527  11.0913  14.9196  15.1063

     occupation numbers 
     1.0000   1.0000   1.0000   1.0000   1.0000   1.0000   1.0000   1.0000
     0.0000   0.0000   0.0000   0.0000

          k = 0.0833 0.4327 0.1224 (  4046 PWs)   bands (ev):

    -9.2859  -9.1645  -3.7619  -3.6879   0.2989   0.3323   2.7041   3.4980
    10.3368  10.8112  15.1105  15.2791

     occupation numbers 
     1.0000   1.0000   1.0000   1.0000   1.0000   1.0000   1.0000   1.0000
     0.0000   0.0000   0.0000   0.0000

          k = 0.0833 0.5289 0.0000 (  4041 PWs)   bands (ev):

    -7.8527  -7.6520  -5.7363  -5.5732  -0.0470   0.0225   3.8623   4.8910
     8.5344   9.3348  14.8390  15.2645

     occupation numbers 
     1.0000   1.0000   1.0000   1.0000   1.0000   1.0000   1.0000   1.0000
     0.0000   0.0000   0.0000   0.0000

          k = 0.0833 0.5289 0.1224 (  4029 PWs)   bands (ev):

    -7.8037  -7.7033  -5.6976  -5.6161  -0.0298   0.0049   4.1339   4.6585
     8.6132   9.0277  14.9395  15.1524

     occupation numbers 
     1.0000   1.0000   1.0000   1.0000   1.0000   1.0000   1.0000   1.0000
     0.0000   0.0000   0.0000   0.0000

          k = 0.1666 0.2885 0.0000 (  4059 PWs)   bands (ev):

   -10.7722 -10.5021  -0.9029  -0.8474   0.4620   0.5024   0.6946   2.5311
    12.9796  13.2695  13.4728  16.8276

     occupation numbers 
     1.0000   1.0000   1.0000   1.0000   1.0000   1.0000   1.0000   1.0000
     0.0000   0.0000   0.0000   0.0000

          k = 0.1666 0.2885 0.1224 (  4057 PWs)   bands (ev):

   -10.7076 -10.5727  -0.8885  -0.8608   0.4709   0.4911   1.0954   2.0007
    13.0993  13.3413  14.4137  16.6640

     occupation numbers 
     1.0000   1.0000   1.0000   1.0000   1.0000   1.0000   1.0000   1.0000
     0.0000   0.0000   0.0000   0.0000

          k = 0.1666 0.3847 0.0000 (  4045 PWs)   bands (ev):

    -9.6587  -9.4094  -2.6472  -2.5418  -0.6074  -0.5347   2.0065   3.6947
    10.9694  11.6136  14.6491  16.9193

     occupation numbers 
     1.0000   1.0000   1.0000   1.0000   1.0000   1.0000   1.0000   1.0000
     0.0000   0.0000   0.0000   0.0000

          k = 0.1666 0.3847 0.1224 (  4043 PWs)   bands (ev):

    -9.5989  -9.4743  -2.6211  -2.5683  -0.5902  -0.5538   2.3802   3.2147
    11.1217  11.4451  15.6362  16.9530

     occupation numbers 
     1.0000   1.0000   1.0000   1.0000   1.0000   1.0000   1.0000   1.0000
     0.0000   0.0000   0.0000   0.0000

          k = 0.1666 0.4808 0.0000 (  4036 PWs)   bands (ev):

    -8.2751  -8.0545  -4.5695  -4.4203  -1.1931  -1.1014   3.5524   4.9283
     9.0347   9.8018  16.3406  16.6812

     occupation numbers 
     1.0000   1.0000   1.0000   1.0000   1.0000   1.0000   1.0000   1.0000
     0.0000   0.0000   0.0000   0.0000

          k = 0.1666 0.4808 0.1224 (  4037 PWs)   bands (ev):

    -8.2218  -8.1116  -4.5332  -4.4586  -1.1708  -1.1249   3.8739   4.5612
     9.1845   9.5751  16.7438  16.8378

     occupation numbers 
     1.0000   1.0000   1.0000   1.0000   1.0000   1.0000   1.0000   1.0000
     0.0000   0.0000   0.0000   0.0000

          k = 0.1666 0.5770 0.0000 (  4036 PWs)   bands (ev):

    -7.0024  -6.8932  -5.9491  -5.8733  -1.3803  -1.2840   4.6904   5.3779
     8.2933   8.6081  16.5542  17.1203

     occupation numbers 
     1.0000   1.0000   1.0000   1.0000   1.0000   1.0000   1.0000   1.0000
     0.0000   0.0000   0.0000   0.0000

          k = 0.1666 0.5770 0.1224 (  4030 PWs)   bands (ev):

    -6.9716  -6.9165  -5.9372  -5.8987  -1.3568  -1.3087   4.9103   5.2693
     8.2427   8.4223  16.6517  16.9200

     occupation numbers 
     1.0000   1.0000   1.0000   1.0000   1.0000   1.0000   1.0000   1.0000
     0.0000   0.0000   0.0000   0.0000

          k = 0.2498 0.4327 0.0000 (  4043 PWs)   bands (ev):

    -8.4240  -8.1991  -3.6701  -3.5928  -2.0704  -2.0131   3.4307   4.9158
     9.3677   9.9871  16.1705  18.6011

     occupation numbers 
     1.0000   1.0000   1.0000   1.0000   1.0000   1.0000   1.0000   1.0000
     0.0000   0.0000   0.0000   0.0000

          k = 0.2498 0.4327 0.1224 (  4045 PWs)   bands (ev):

    -8.3698  -8.2574  -3.6500  -3.6113  -2.0585  -2.0298   3.7675   4.5048
     9.5231   9.8302  16.7201  17.6636

     occupation numbers 
     1.0000   1.0000   1.0000   1.0000   1.0000   1.0000   1.0000   1.0000
     0.0000   0.0000   0.0000   0.0000

          k = 0.2498 0.5289 0.0000 (  4016 PWs)   bands (ev):

    -6.9898  -6.8065  -5.1037  -4.9805  -2.7967  -2.7006   4.9763   6.0114
     7.9345   8.4918  17.8816  18.5324

     occupation numbers 
     1.0000   1.0000   1.0000   1.0000   1.0000   1.0000   1.0000   1.0000
     0.0000   0.0000   0.0000   0.0000

          k = 0.2498 0.5289 0.1224 (  4030 PWs)   bands (ev):

    -6.9449  -6.8532  -5.0738  -5.0122  -2.7745  -2.7263   5.2451   5.7730
     8.0311   8.3109  17.2205  17.4160

     occupation numbers 
     1.0000   1.0000   1.0000   1.0000   1.0000   1.0000   1.0000   1.0000
     0.0000   0.0000   0.0000   0.0000

          k = 0.3331 0.5770 0.0000 (  4020 PWs)   bands (ev):

    -5.7870  -5.6879  -5.6879  -5.5941  -3.6304  -3.6304   6.2150   6.8424
     6.8424   7.6015  17.8723  17.8723

     occupation numbers 
     1.0000   1.0000   1.0000   1.0000   1.0000   1.0000   1.0000   0.6914
     0.6914   0.0000   0.0000   0.0000

          k = 0.3331 0.5770 0.1224 (  4014 PWs)   bands (ev):

    -5.7403  -5.6862  -5.6862  -5.6438  -3.6342  -3.6342   6.5267   6.8689
     6.8689   7.2142  17.0323  17.0323

     occupation numbers 
     1.0000   1.0000   1.0000   1.0000   1.0000   1.0000   1.0000   0.4043
     0.4043   0.0000   0.0000   0.0000

     the Fermi energy is     6.8692 ev

!    total energy              =     -48.26576274 Ry
     estimated scf accuracy    <       0.00000016 Ry
     smearing contrib. (-TS)   =      -0.00004214 Ry
     internal energy E=F+TS    =     -48.26572060 Ry

     The total energy is F=E-TS. E is the sum of the following terms:
     one-electron contribution =     -10.63850962 Ry
     hartree contribution      =      13.39173462 Ry
     xc contribution           =     -17.22279979 Ry
     ewald contribution        =     -33.79614582 Ry

     convergence has been achieved in   3 iterations


     -----------------------------------------------
     Non-local corr. energy    =       0.17988296 Ry
     -----------------------------------------------


     Forces acting on atoms (cartesian axes, Ry/au):

     atom    1 type  1   force =     0.00000000    0.00000000    0.00000000
     atom    2 type  1   force =     0.00000000    0.00000000    0.00000000
     atom    3 type  1   force =     0.00000000    0.00000000    0.00000000
     atom    4 type  1   force =     0.00000000    0.00000000    0.00000000
     The non-local contrib.  to forces
     atom    1 type  1   force =     0.00000000    0.00000000    0.00000000
     atom    2 type  1   force =    -0.00000000   -0.00000000    0.00000000
     atom    3 type  1   force =     0.00000000   -0.00000000    0.00000000
     atom    4 type  1   force =    -0.00000000    0.00000000    0.00000000
     The ionic contribution  to forces
     atom    1 type  1   force =     0.00000850   -0.00000491   -0.00000000
     atom    2 type  1   force =    -0.00000850    0.00000491    0.00000000
     atom    3 type  1   force =    -0.00000852    0.00000492   -0.00000000
     atom    4 type  1   force =     0.00000852   -0.00000492    0.00000000
     The local contribution  to forces
     atom    1 type  1   force =     0.00000000    0.00000000    0.00000000
     atom    2 type  1   force =    -0.00000000   -0.00000000    0.00000000
     atom    3 type  1   force =    -0.00000680    0.00000393    0.00000000
     atom    4 type  1   force =     0.00000680   -0.00000393    0.00000000
     The core correction contribution to forces
     atom    1 type  1   force =    -0.00000000    0.00000000    0.00000000
     atom    2 type  1   force =     0.00000000   -0.00000000   -0.00000000
     atom    3 type  1   force =     0.00000053   -0.00000031    0.00000000
     atom    4 type  1   force =    -0.00000053    0.00000031   -0.00000000
     The Hubbard contrib.    to forces
     atom    1 type  1   force =     0.00000000    0.00000000    0.00000000
     atom    2 type  1   force =     0.00000000    0.00000000    0.00000000
     atom    3 type  1   force =     0.00000000    0.00000000    0.00000000
     atom    4 type  1   force =     0.00000000    0.00000000    0.00000000
     The SCF correction term to forces
     atom    1 type  1   force =    -0.00000000    0.00000000    0.00000000
     atom    2 type  1   force =     0.00000000   -0.00000000   -0.00000000
     atom    3 type  1   force =     0.00000000   -0.00000000    0.00000000
     atom    4 type  1   force =    -0.00000000    0.00000000   -0.00000000

     Total force =     0.000000     Total SCF correction =     0.000000


     Computing stress (Cartesian axis) and pressure



     -----------------------------------------------
     Non-local corr. energy    =       0.17988296 Ry
     -----------------------------------------------

          total   stress  (Ry/bohr**3)                   (kbar)     P=       -4.07
  -0.00002757   0.00000000   0.00000000           -4.06        0.00        0.00
   0.00000000  -0.00002757   0.00000000            0.00       -4.06        0.00
   0.00000000   0.00000000  -0.00002784            0.00        0.00       -4.10

     kinetic stress (kbar)  13270.86      0.00     -0.00
                                0.00  13270.86      0.00
                                0.00     -0.00  14613.00

     local   stress (kbar) -19555.08      0.01     -0.00
                                0.01 -19555.07      0.00
                               -0.00      0.00  23509.50

     nonloc. stress (kbar)  -1347.25     -0.00      0.00
                               -0.00  -1347.25      0.00
                                0.00     -0.00  -1125.82

     hartree stress (kbar)   7202.26      0.00     -0.00
                                0.00   7202.26      0.00
                               -0.00      0.00  -6184.52

     exc-cor stress (kbar)  -1055.72     -0.00     -0.00
                               -0.00  -1055.72      0.00
                               -0.00      0.00  -1225.00

     corecor stress (kbar)  -2013.58      0.00     -0.00
                                0.00  -2013.58     -0.00
                               -0.00     -0.00  -1958.44

     ewald   stress (kbar)   3484.42     -0.02      0.00
                               -0.02   3484.39     -0.00
                                0.00     -0.00 -27713.28

     hubbard stress (kbar)      0.00      0.00      0.00
                                0.00      0.00      0.00
                                0.00      0.00      0.00

     DFT-D   stress (kbar)      0.00      0.00      0.00
                                0.00      0.00      0.00
                                0.00      0.00      0.00

     XDM     stress (kbar)      0.00      0.00      0.00
                                0.00      0.00      0.00
                                0.00      0.00      0.00

     dft-nl  stress (kbar)     10.04      0.00     -0.00
                                0.00     10.04     -0.00
                               -0.00     -0.00     80.46

     TS-vdW  stress (kbar)      0.00      0.00      0.00
                                0.00      0.00      0.00
                                0.00      0.00      0.00

     MDB     stress (kbar)      0.00      0.00      0.00
                                0.00      0.00      0.00
                                0.00      0.00      0.00

     3D-RISM stress (kbar)      0.00      0.00      0.00
                                0.00      0.00      0.00
                                0.00      0.00      0.00

     Energy error            =      7.1E-06 Ry
     Gradient error          =      1.4E-22 Ry/Bohr
     Cell gradient error     =      4.1E+00 kbar

     number of scf cycles    =   2
     number of bfgs steps    =   1

     enthalpy           old  =     -48.2657556051 Ry
     enthalpy           new  =     -48.2657627381 Ry

     CASE: enthalpy          _new < enthalpy          _old

     new trust radius        =       0.0035485204 bohr
     new conv_thr            =       0.0000000100 Ry

     new unit-cell volume =    239.30491 a.u.^3 (    35.46133 Ang^3 )
     density =      2.24974 g/cm^3

CELL_PARAMETERS (alat=  4.66447000)
   1.000456223   0.000000000   0.000000000
  -0.500228111   0.866420504   0.000000000
   0.000000000   0.000000000   2.720306772

ATOMIC_POSITIONS (crystal)
C             0.0000000000        0.0000000000        0.0000000000    0   0   0
C             0.0000000000        0.0000000000        0.5000000000
C             0.6666670000        0.3333330000        0.0000000000    0   0   0
C             0.3333330000        0.6666670000        0.5000000000



     Writing config-only to output data dir ./tmp/CBULK_AB_PBE_vdW.save/
     NEW-OLD atomic charge density approx. for the potential


     -----------------------------------------------
     Non-local corr. energy    =       0.17959845 Ry
     -----------------------------------------------

     extrapolated charge   15.97637, renormalised to   16.00000

     total cpu time spent up to now is       20.0 secs

     Self-consistent Calculation

     iteration #  1     ecut=   100.00 Ry     beta= 0.70
     Davidson diagonalization with overlap

---- Real-time Memory Report at c_bands before calling an iterative solver
             0 MiB given to the printing process from OS
             0 MiB allocation reported by mallinfo(arena+hblkhd)
             0 MiB available memory on the node where the printing process lives
------------------
     ethr =  1.00E-06,  avg # of iterations =  2.2

     Threshold (ethr) on eigenvalues was too large:
     Diagonalizing with lowered threshold

     Davidson diagonalization with overlap

---- Real-time Memory Report at c_bands before calling an iterative solver
             0 MiB given to the printing process from OS
             0 MiB allocation reported by mallinfo(arena+hblkhd)
             0 MiB available memory on the node where the printing process lives
------------------
     ethr =  6.21E-08,  avg # of iterations =  1.0


     -----------------------------------------------
     Non-local corr. energy    =       0.17995559 Ry
     -----------------------------------------------


     total cpu time spent up to now is       21.4 secs

     total energy              =     -48.26574986 Ry
     estimated scf accuracy    <       0.00001001 Ry

     iteration #  2     ecut=   100.00 Ry     beta= 0.70
     Davidson diagonalization with overlap

---- Real-time Memory Report at c_bands before calling an iterative solver
             0 MiB given to the printing process from OS
             0 MiB allocation reported by mallinfo(arena+hblkhd)
             0 MiB available memory on the node where the printing process lives
------------------
     ethr =  6.25E-08,  avg # of iterations =  3.1


     -----------------------------------------------
     Non-local corr. energy    =       0.17985841 Ry
     -----------------------------------------------


     total cpu time spent up to now is       22.3 secs

     total energy              =     -48.26577522 Ry
     estimated scf accuracy    <       0.00001369 Ry

     iteration #  3     ecut=   100.00 Ry     beta= 0.70
     Davidson diagonalization with overlap

---- Real-time Memory Report at c_bands before calling an iterative solver
             0 MiB given to the printing process from OS
             0 MiB allocation reported by mallinfo(arena+hblkhd)
             0 MiB available memory on the node where the printing process lives
------------------
     ethr =  6.25E-08,  avg # of iterations =  1.0


     -----------------------------------------------
     Non-local corr. energy    =       0.17973685 Ry
     -----------------------------------------------


     total cpu time spent up to now is       22.9 secs

     total energy              =     -48.26577289 Ry
     estimated scf accuracy    <       0.00000399 Ry

     iteration #  4     ecut=   100.00 Ry     beta= 0.70
     Davidson diagonalization with overlap

---- Real-time Memory Report at c_bands before calling an iterative solver
             0 MiB given to the printing process from OS
             0 MiB allocation reported by mallinfo(arena+hblkhd)
             0 MiB available memory on the node where the printing process lives
------------------
     ethr =  2.49E-08,  avg # of iterations =  2.0


     -----------------------------------------------
     Non-local corr. energy    =       0.17974443 Ry
     -----------------------------------------------


     total cpu time spent up to now is       23.7 secs

     total energy              =     -48.26577384 Ry
     estimated scf accuracy    <       0.00000013 Ry

     iteration #  5     ecut=   100.00 Ry     beta= 0.70
     Davidson diagonalization with overlap

---- Real-time Memory Report at c_bands before calling an iterative solver
             0 MiB given to the printing process from OS
             0 MiB allocation reported by mallinfo(arena+hblkhd)
             0 MiB available memory on the node where the printing process lives
------------------
     ethr =  8.02E-10,  avg # of iterations =  1.2


     -----------------------------------------------
     Non-local corr. energy    =       0.17974367 Ry
     -----------------------------------------------


     total cpu time spent up to now is       24.3 secs

     total energy              =     -48.26577385 Ry
     estimated scf accuracy    <       0.00000005 Ry

     iteration #  6     ecut=   100.00 Ry     beta= 0.70
     Davidson diagonalization with overlap

---- Real-time Memory Report at c_bands before calling an iterative solver
             0 MiB given to the printing process from OS
             0 MiB allocation reported by mallinfo(arena+hblkhd)
             0 MiB available memory on the node where the printing process lives
------------------
     ethr =  2.88E-10,  avg # of iterations =  1.0


     -----------------------------------------------
     Non-local corr. energy    =       0.17974666 Ry
     -----------------------------------------------


     total cpu time spent up to now is       25.1 secs

     total energy              =     -48.26577383 Ry
     estimated scf accuracy    <       0.00000005 Ry

[...]
    11.9609  15.3738  15.5769  16.1539

     occupation numbers 
     1.0000   1.0000   1.0000   1.0000   1.0000   1.0000   1.0000   1.0000
     0.0000   0.0000   0.0000   0.0000

          k =-0.0000 0.1924 0.1241 (  4004 PWs)   bands (ev):

   -11.8464 -11.6828  -0.3119   0.7242   1.7124   1.7493   2.8722   2.8956
    13.2641  15.3663  15.5190  16.1645

     occupation numbers 
     1.0000   1.0000   1.0000   1.0000   1.0000   1.0000   1.0000   1.0000
     0.0000   0.0000   0.0000   0.0000

          k =-0.0000 0.2886-0.0000 (  4003 PWs)   bands (ev):

   -11.1080 -10.7969  -0.4174  -0.3036   0.2186   1.9785   2.0341   2.2423
    12.9529  13.9273  14.6368  15.0291

     occupation numbers 
     1.0000   1.0000   1.0000   1.0000   1.0000   1.0000   1.0000   1.0000
     0.0000   0.0000   0.0000   0.0000

          k =-0.0000 0.2886 0.1241 (  3997 PWs)   bands (ev):

   -11.0341 -10.8787  -0.3895  -0.3327   0.6571   1.6526   1.9923   2.0201
    13.9017  14.3561  14.4095  15.0985

     occupation numbers 
     1.0000   1.0000   1.0000   1.0000   1.0000   1.0000   1.0000   1.0000
     0.0000   0.0000   0.0000   0.0000

          k =-0.0000 0.3848-0.0000 (  3973 PWs)   bands (ev):

    -9.9816  -9.6934  -2.6335  -2.4806   1.2435   1.3041   1.5487   3.4148
    11.4866  12.4865  14.2816  14.6769

     occupation numbers 
     1.0000   1.0000   1.0000   1.0000   1.0000   1.0000   1.0000   1.0000
     0.0000   0.0000   0.0000   0.0000

          k =-0.0000 0.3848 0.1241 (  3997 PWs)   bands (ev):

    -9.9128  -9.7689  -2.5963  -2.5199   1.2586   1.2889   1.9591   2.8802
    11.6788  12.1852  14.7224  14.8711

     occupation numbers 
     1.0000   1.0000   1.0000   1.0000   1.0000   1.0000   1.0000   1.0000
     0.0000   0.0000   0.0000   0.0000

          k =-0.0000 0.4810-0.0000 (  3981 PWs)   bands (ev):

    -8.5753  -8.3185  -4.7433  -4.5577   0.7696   0.8327   3.1073   4.6074
     9.3515  10.4443  14.3712  14.7978

     occupation numbers 
     1.0000   1.0000   1.0000   1.0000   1.0000   1.0000   1.0000   1.0000
     0.0000   0.0000   0.0000   0.0000

          k =-0.0000 0.4810 0.1241 (  3976 PWs)   bands (ev):

    -8.5136  -8.3853  -4.6985  -4.6057   0.7852   0.8168   3.4595   4.2100
     9.5264  10.0809  14.4775  14.6914

     occupation numbers 
     1.0000   1.0000   1.0000   1.0000   1.0000   1.0000   1.0000   1.0000
     0.0000   0.0000   0.0000   0.0000

          k = 0.0000-0.5772 0.0000 (  3960 PWs)   bands (ev):

    -7.2646  -7.1372  -6.1866  -6.0906   0.6069   0.6708   4.2217   4.9757
     8.5404   9.2696  14.2797  14.7305

     occupation numbers 
     1.0000   1.0000   1.0000   1.0000   1.0000   1.0000   1.0000   1.0000
     0.0000   0.0000   0.0000   0.0000

          k = 0.0000-0.5772 0.1241 (  3990 PWs)   bands (ev):

    -7.2280  -7.1635  -6.1723  -6.1235   0.6227   0.6547   4.4622   4.8560
     8.5357   8.9167  14.3878  14.6139

     occupation numbers 
     1.0000   1.0000   1.0000   1.0000   1.0000   1.0000   1.0000   1.0000
     0.0000   0.0000   0.0000   0.0000

          k = 0.0833 0.1443-0.0000 (  4007 PWs)   bands (ev):

   -12.0883 -11.7572  -0.9654   1.1593   2.3121   2.3495   2.9867   3.0143
    11.7623  15.7638  15.8906  16.6830

     occupation numbers 
     1.0000   1.0000   1.0000   1.0000   1.0000   1.0000   1.0000   1.0000
     0.0000   0.0000   0.0000   0.0000

          k = 0.0833 0.1443 0.1241 (  3995 PWs)   bands (ev):

   -12.0099 -11.8446  -0.5084   0.5351   2.3220   2.3407   2.9930   3.0068
    13.0812  15.6841  15.8587  16.1577

     occupation numbers 
     1.0000   1.0000   1.0000   1.0000   1.0000   1.0000   1.0000   1.0000
     0.0000   0.0000   0.0000   0.0000

          k = 0.0833 0.2405-0.0000 (  3993 PWs)   bands (ev):

   -11.4335 -11.1158  -0.1720   0.5878   0.6663   1.8885   1.9808   2.0317
    12.5617  14.8630  15.3667  15.8365

     occupation numbers 
     1.0000   1.0000   1.0000   1.0000   1.0000   1.0000   1.0000   1.0000
     0.0000   0.0000   0.0000   0.0000

          k = 0.0833 0.2405 0.1241 (  4004 PWs)   bands (ev):

   -11.3581 -11.1995   0.2724   0.6072   0.6471   1.2864   1.9931   2.0186
    13.8198  14.9758  15.2008  15.8624

     occupation numbers 
     1.0000   1.0000   1.0000   1.0000   1.0000   1.0000   1.0000   1.0000
     0.0000   0.0000   0.0000   0.0000

          k = 0.0833 0.3367-0.0000 (  4002 PWs)   bands (ev):

   -10.4621 -10.1642  -1.5018  -1.3756   0.9898   1.0872   1.1553   2.9347
    12.5947  13.3683  13.7484  15.5252

     occupation numbers 
     1.0000   1.0000   1.0000   1.0000   1.0000   1.0000   1.0000   1.0000
     0.0000   0.0000   0.0000   0.0000

          k = 0.0833 0.3367 0.1241 (  3995 PWs)   bands (ev):

   -10.3912 -10.2423  -1.4709  -1.4078   1.1039   1.1380   1.4138   2.3720
    12.7494  13.1466  14.9301  15.6010

     occupation numbers 
     1.0000   1.0000   1.0000   1.0000   1.0000   1.0000   1.0000   1.0000
     0.0000   0.0000   0.0000   0.0000

          k = 0.0833 0.4329-0.0000 (  3976 PWs)   bands (ev):

    -9.1930  -8.9213  -3.6378  -3.4714   0.4489   0.5248   2.4569   4.1758
    10.2951  11.3056  15.1272  15.3289

     occupation numbers 
     1.0000   1.0000   1.0000   1.0000   1.0000   1.0000   1.0000   1.0000
     0.0000   0.0000   0.0000   0.0000

          k = 0.0833 0.4329 0.1241 (  3984 PWs)   bands (ev):

    -9.1279  -8.9923  -3.5974  -3.5142   0.4676   0.5055   2.8422   3.6941
    10.4917  11.0028  15.2855  15.4764

     occupation numbers 
     1.0000   1.0000   1.0000   1.0000   1.0000   1.0000   1.0000   1.0000
     0.0000   0.0000   0.0000   0.0000

          k = 0.0833 0.5291-0.0000 (  3973 PWs)   bands (ev):

    -7.6974  -7.4727  -5.5789  -5.3960   0.1189   0.1980   3.9860   5.0888
     8.6992   9.5474  15.0021  15.4709

     occupation numbers 
     1.0000   1.0000   1.0000   1.0000   1.0000   1.0000   1.0000   1.0000
     0.0000   0.0000   0.0000   0.0000

          k = 0.0833 0.5291 0.1241 (  3968 PWs)   bands (ev):

    -7.6427  -7.5303  -5.5359  -5.4443   0.1384   0.1780   4.2797   4.8440
     8.7733   9.2152  15.1123  15.3469

     occupation numbers 
     1.0000   1.0000   1.0000   1.0000   1.0000   1.0000   1.0000   1.0000
     0.0000   0.0000   0.0000   0.0000

          k = 0.1666 0.2886-0.0000 (  4005 PWs)   bands (ev):

   -10.6234 -10.3222  -0.7344  -0.6715   0.6304   0.6761   0.8013   2.7711
    13.1326  13.5598  13.6709  17.0000

     occupation numbers 
     1.0000   1.0000   1.0000   1.0000   1.0000   1.0000   1.0000   1.0000
     0.0000   0.0000   0.0000   0.0000

          k = 0.1666 0.2886 0.1241 (  4000 PWs)   bands (ev):

   -10.5517 -10.4012  -0.7181  -0.6867   0.6403   0.6632   1.2297   2.1996
    13.2631  13.5270  14.7512  16.9182

     occupation numbers 
     1.0000   1.0000   1.0000   1.0000   1.0000   1.0000   1.0000   1.0000
     0.0000   0.0000   0.0000   0.0000

          k = 0.1666 0.3848-0.0000 (  3987 PWs)   bands (ev):

    -9.5079  -9.2295  -2.4832  -2.3642  -0.4424  -0.3600   2.1172   3.9293
    11.1160  11.8143  14.9309  17.0866

     occupation numbers 
     1.0000   1.0000   1.0000   1.0000   1.0000   1.0000   1.0000   1.0000
     0.0000   0.0000   0.0000   0.0000

          k = 0.1666 0.3848 0.1241 (  3985 PWs)   bands (ev):

    -9.4414  -9.3023  -2.4537  -2.3942  -0.4230  -0.3817   2.5171   3.4121
    11.2812  11.6316  15.9498  17.1381

     occupation numbers 
     1.0000   1.0000   1.0000   1.0000   1.0000   1.0000   1.0000   1.0000
     0.0000   0.0000   0.0000   0.0000

          k = 0.1666 0.4810-0.0000 (  3980 PWs)   bands (ev):

    -8.1215  -7.8747  -4.4099  -4.2421  -1.0297  -0.9259   3.6702   5.1477
     9.1830  10.0071  16.5978  16.8557

     occupation numbers 
     1.0000   1.0000   1.0000   1.0000   1.0000   1.0000   1.0000   1.0000
     0.0000   0.0000   0.0000   0.0000

          k = 0.1666 0.4810 0.1241 (  3977 PWs)   bands (ev):

    -8.0621  -7.9388  -4.3693  -4.2854  -1.0046  -0.9527   4.0156   4.7540
     9.3416   9.7622  16.9171  17.0548

     occupation numbers 
     1.0000   1.0000   1.0000   1.0000   1.0000   1.0000   1.0000   1.0000
     0.0000   0.0000   0.0000   0.0000

          k = 0.1666 0.5772-0.0000 (  3962 PWs)   bands (ev):

    -6.8415  -6.7193  -5.7855  -5.7010  -1.2173  -1.1084   4.8199   5.5577
     8.4816   8.8014  16.7177  17.3301

     occupation numbers 
     1.0000   1.0000   1.0000   1.0000   1.0000   1.0000   1.0000   1.0000
     0.0000   0.0000   0.0000   0.0000

          k = 0.1666 0.5772 0.1241 (  3981 PWs)   bands (ev):

    -6.8065  -6.7447  -5.7732  -5.7302  -1.1908  -1.1364   5.0605   5.4482
     8.4135   8.6007  16.8215  17.1103

     occupation numbers 
     1.0000   1.0000   1.0000   1.0000   1.0000   1.0000   1.0000   1.0000
     0.0000   0.0000   0.0000   0.0000

          k = 0.2499 0.4329-0.0000 (  3973 PWs)   bands (ev):

    -8.2708  -8.0193  -3.5047  -3.4175  -1.9060  -1.8416   3.5467   5.1424
     9.5122  10.1851  16.4406  18.8396

     occupation numbers 
     1.0000   1.0000   1.0000   1.0000   1.0000   1.0000   1.0000   1.0000
     0.0000   0.0000   0.0000   0.0000

          k = 0.2499 0.4329 0.1241 (  3980 PWs)   bands (ev):

    -8.2104  -8.0847  -3.4818  -3.4382  -1.8930  -1.8607   3.9079   4.6998
     9.6813  10.0146  16.9821  17.8964

     occupation numbers 
     1.0000   1.0000   1.0000   1.0000   1.0000   1.0000   1.0000   1.0000
     0.0000   0.0000   0.0000   0.0000

          k = 0.2499 0.5291-0.0000 (  3964 PWs)   bands (ev):

    -6.8328  -6.6273  -4.9423  -4.8038  -2.6357  -2.5273   5.1009   6.2112
     8.0903   8.6933  18.1268  18.7013

     occupation numbers 
     1.0000   1.0000   1.0000   1.0000   1.0000   1.0000   1.0000   1.0000
     0.0000   0.0000   0.0000   0.0000

          k = 0.2499 0.5291 0.1241 (  3967 PWs)   bands (ev):

    -6.7826  -6.6798  -4.9088  -4.8395  -2.6108  -2.5566   5.3917   5.9599
     8.1915   8.4942  17.4048  17.6068

     occupation numbers 
     1.0000   1.0000   1.0000   1.0000   1.0000   1.0000   1.0000   1.0000
     0.0000   0.0000   0.0000   0.0000

          k = 0.3333 0.5772-0.0000 (  3978 PWs)   bands (ev):

    -5.6296  -5.5185  -5.5185  -5.4127  -3.4653  -3.4653   6.3315   7.0066
     7.0066   7.8340  18.1090  18.1090

     occupation numbers 
     1.0000   1.0000   1.0000   1.0000   1.0000   1.0000   1.0000   0.7233
     0.7233   0.0000   0.0000   0.0000

          k = 0.3333 0.5772 0.1241 (  3951 PWs)   bands (ev):

    -5.5772  -5.5163  -5.5163  -5.4688  -3.4700  -3.4700   6.6677   7.0377
     7.0377   7.4121  17.2101  17.2101

     occupation numbers 
     1.0000   1.0000   1.0000   1.0000   1.0000   1.0000   1.0000   0.3884
     0.3883   0.0000   0.0000   0.0000

     the Fermi energy is     7.0365 ev

!    total energy              =     -48.26582621 Ry
     estimated scf accuracy    <          4.1E-09 Ry
     smearing contrib. (-TS)   =      -0.00004089 Ry
     internal energy E=F+TS    =     -48.26578532 Ry

     The total energy is F=E-TS. E is the sum of the following terms:
     one-electron contribution =      -9.56306792 Ry
     hartree contribution      =      12.95608912 Ry
     xc contribution           =     -17.22958762 Ry
     ewald contribution        =     -34.42921890 Ry

     convergence has been achieved in   7 iterations


     -----------------------------------------------
     Non-local corr. energy    =       0.17848847 Ry
     -----------------------------------------------


     Forces acting on atoms (cartesian axes, Ry/au):

     atom    1 type  1   force =     0.00000000    0.00000000   -0.00000000
     atom    2 type  1   force =    -0.00000000   -0.00000000    0.00000000
     atom    3 type  1   force =     0.00000000    0.00000000   -0.00000000
     atom    4 type  1   force =    -0.00000000    0.00000000    0.00000000
     The non-local contrib.  to forces
     atom    1 type  1   force =     0.00000000   -0.00000000    0.00000000
     atom    2 type  1   force =     0.00000000    0.00000000   -0.00000000
     atom    3 type  1   force =     0.00000000   -0.00000000    0.00000000
     atom    4 type  1   force =    -0.00000000    0.00000000   -0.00000000
     The ionic contribution  to forces
     atom    1 type  1   force =     0.00000850   -0.00000491   -0.00000000
     atom    2 type  1   force =    -0.00000850    0.00000491    0.00000000
     atom    3 type  1   force =    -0.00000853    0.00000492   -0.00000000
     atom    4 type  1   force =     0.00000853   -0.00000492    0.00000000
     The local contribution  to forces
     atom    1 type  1   force =     0.00000000    0.00000000   -0.00000000
     atom    2 type  1   force =    -0.00000000   -0.00000000    0.00000000
     atom    3 type  1   force =    -0.00000680    0.00000392   -0.00000000
     atom    4 type  1   force =     0.00000680   -0.00000392    0.00000000
     The core correction contribution to forces
     atom    1 type  1   force =    -0.00000000    0.00000000    0.00000000
     atom    2 type  1   force =     0.00000000   -0.00000000   -0.00000000
     atom    3 type  1   force =     0.00000053   -0.00000031   -0.00000000
     atom    4 type  1   force =    -0.00000053    0.00000031   -0.00000000
     The Hubbard contrib.    to forces
     atom    1 type  1   force =     0.00000000    0.00000000    0.00000000
     atom    2 type  1   force =     0.00000000    0.00000000    0.00000000
     atom    3 type  1   force =     0.00000000    0.00000000    0.00000000
     atom    4 type  1   force =     0.00000000    0.00000000    0.00000000
     The SCF correction term to forces
     atom    1 type  1   force =    -0.00000000    0.00000000    0.00000000
     atom    2 type  1   force =     0.00000000   -0.00000000    0.00000000
     atom    3 type  1   force =     0.00000000   -0.00000000    0.00000000
     atom    4 type  1   force =    -0.00000000    0.00000000    0.00000000

     Total force =     0.000000     Total SCF correction =     0.000000


     Computing stress (Cartesian axis) and pressure



     -----------------------------------------------
     Non-local corr. energy    =       0.17848847 Ry
     -----------------------------------------------

          total   stress  (Ry/bohr**3)                   (kbar)     P=        0.31
   0.00000292  -0.00000000  -0.00000000            0.43       -0.00       -0.00
  -0.00000000   0.00000292  -0.00000000           -0.00        0.43       -0.00
  -0.00000000  -0.00000000   0.00000056           -0.00       -0.00        0.08

     kinetic stress (kbar)  13478.74      0.00      0.00
                                0.00  13478.74      0.00
                                0.00      0.00  14843.26

     local   stress (kbar) -19197.22      0.01      0.00
                                0.01 -19197.21      0.00
                                0.00      0.00  23222.50

     nonloc. stress (kbar)  -1369.29      0.00     -0.00
                                0.00  -1369.29      0.00
                                0.00      0.00  -1144.38

     hartree stress (kbar)   7041.26     -0.00     -0.00
                               -0.00   7041.26      0.00
                               -0.00      0.00  -6009.47

     exc-cor stress (kbar)  -1072.79     -0.00      0.00
                               -0.00  -1072.79     -0.00
                                0.00     -0.00  -1243.56

     corecor stress (kbar)  -2044.26      0.00     -0.00
                                0.00  -2044.26      0.00
                               -0.00      0.00  -1988.24

     ewald   stress (kbar)   3153.73     -0.02     -0.00
                               -0.02   3153.70     -0.00
                               -0.00     -0.00 -27760.59

     hubbard stress (kbar)      0.00      0.00      0.00
                                0.00      0.00      0.00
                                0.00      0.00      0.00

     DFT-D   stress (kbar)      0.00      0.00      0.00
                                0.00      0.00      0.00
                                0.00      0.00      0.00

     XDM     stress (kbar)      0.00      0.00      0.00
                                0.00      0.00      0.00
                                0.00      0.00      0.00

     dft-nl  stress (kbar)     10.27      0.00     -0.00
                                0.00     10.27      0.00
                               -0.00      0.00     80.55

     TS-vdW  stress (kbar)      0.00      0.00      0.00
                                0.00      0.00      0.00
                                0.00      0.00      0.00

     MDB     stress (kbar)      0.00      0.00      0.00
                                0.00      0.00      0.00
                                0.00      0.00      0.00

     3D-RISM stress (kbar)      0.00      0.00      0.00
                                0.00      0.00      0.00
                                0.00      0.00      0.00


     Writing all to output data dir ./tmp/CBULK_AB_PBE_vdW.save/

     init_run     :     10.11s CPU     10.17s WALL (       2 calls)
     electrons    :     68.96s CPU     73.07s WALL (      11 calls)
     update_pot   :      2.33s CPU      2.39s WALL (       9 calls)
     forces       :      2.37s CPU      2.44s WALL (      11 calls)
     stress       :      9.01s CPU      9.49s WALL (      11 calls)

     Called by init_run:
     wfcinit      :      0.62s CPU      0.63s WALL (       2 calls)
     wfcinit:atom :      0.01s CPU      0.01s WALL (      76 calls)
     wfcinit:wfcr :      0.57s CPU      0.58s WALL (      76 calls)
     potinit      :      8.99s CPU      9.03s WALL (       2 calls)
     hinit0       :      0.46s CPU      0.46s WALL (       2 calls)

     Called by electrons:
     c_bands      :     56.88s CPU     59.88s WALL (      89 calls)
     sum_band     :      8.26s CPU      8.77s WALL (      89 calls)
     v_of_rho     :     12.86s CPU     13.32s WALL (      96 calls)
     v_h          :      0.04s CPU      0.04s WALL (      96 calls)
     v_xc         :     13.72s CPU     14.36s WALL (     118 calls)
     mix_rho      :      0.13s CPU      0.30s WALL (      89 calls)
     vdW_kernel   :      8.80s CPU      8.83s WALL (       1 calls)

     Called by c_bands:
     init_us_2    :      1.00s CPU      1.05s WALL (    7676 calls)
     init_us_2:cp :      0.98s CPU      1.02s WALL (    7676 calls)
     cegterg      :     54.84s CPU     57.67s WALL (    3382 calls)

     Called by sum_band:
     sum_band:wei :      0.04s CPU      0.04s WALL (      89 calls)
     sum_band:loo :      8.11s CPU      8.61s WALL (      89 calls)
     sum_band:buf :      0.10s CPU      0.10s WALL (    3382 calls)
     sum_band:ini :      0.43s CPU      0.45s WALL (    3382 calls)

     Called by *egterg:
     cdiaghg      :      2.04s CPU      2.10s WALL (    9977 calls)
     cegterg:over :      2.74s CPU      2.85s WALL (    7089 calls)
     cegterg:upda :      1.84s CPU      2.23s WALL (    7089 calls)
     cegterg:last :      2.04s CPU      2.07s WALL (    5739 calls)
     h_psi        :     44.49s CPU     46.45s WALL (   10547 calls)
     g_psi        :      0.23s CPU      0.30s WALL (    7089 calls)

     Called by h_psi:
     h_psi:calbec :      3.03s CPU      3.14s WALL (   10547 calls)
     vloc_psi     :     38.33s CPU     40.31s WALL (   10547 calls)
     add_vuspsi   :      2.87s CPU      2.68s WALL (   10547 calls)

     General routines
     calbec       :      4.31s CPU      4.42s WALL (   12637 calls)
     fft          :      2.39s CPU      2.48s WALL (    7621 calls)
     ffts         :      0.02s CPU      0.02s WALL (      89 calls)
     fftw         :     41.62s CPU     43.65s WALL (  242058 calls)

     Parallel routines

     PWSCF        :   1m32.97s CPU   1m37.83s WALL


   This run was terminated on:  11:38:20   4Apr2024            

=------------------------------------------------------------------------------=
   JOB DONE.
=------------------------------------------------------------------------------=
