
     Program PWSCF v.7.2 starts on  4Apr2024 at 12: 0:45 

     This program is part of the open-source Quantum ESPRESSO suite
     for quantum simulation of materials; please cite
         "P. Giannozzi et al., J. Phys.:Condens. Matter 21 395502 (2009);
         "P. Giannozzi et al., J. Phys.:Condens. Matter 29 465901 (2017);
         "P. Giannozzi et al., J. Chem. Phys. 152 154105 (2020);
          URL http://www.quantum-espresso.org", 
     in publications or presentations arising from this work. More details at
     http://www.quantum-espresso.org/quote

     Parallel version (MPI & OpenMP), running on       8 processor cores
     Number of MPI processes:                 8
     Threads/MPI process:                     1

     MPI processes distributed on     1 nodes
     0 MiB available memory on the printing compute node when the environment starts

     Waiting for input...
     Reading input from standard input

     Current dimensions of program PWSCF are:
     Max number of different atomic species (ntypx) = 10
     Max number of k-points (npk) =  40000
     Max angular momentum in pseudopotentials (lmaxx) =  4

     IMPORTANT: XC functional enforced from input :
     Exchange-correlation= VDW-DF2-B86R
                           (   1   4  26   0   2   0   0)
     Any further DFT definition will be discarded
     Please, verify this is what you really want


     R & G space division:  proc/nbgrp/npool/nimage =       8
     Subspace diagonalization in iterative solution of the eigenvalue problem:
     a serial algorithm will be used


     Parallelization info
     --------------------
     sticks:   dense  smooth     PW     G-vecs:    dense   smooth      PW
     Min         119     119     34                 8197     8197    1257
     Max         120     120     37                 8210     8210    1260
     Sum         955     955    283                65617    65617   10069

     Using Slab Decomposition



     bravais-lattice index     =            4
     lattice parameter (alat)  =       4.6645  a.u.
     unit-cell volume          =     239.5607 (a.u.)^3
     number of atoms/cell      =            4
     number of atomic types    =            1
     number of electrons       =        16.00
     number of Kohn-Sham states=           12
     kinetic-energy cutoff     =     160.0000  Ry
     charge density cutoff     =     640.0000  Ry
     scf convergence threshold =      1.0E-06
     mixing beta               =       0.7000
     number of iterations used =            8  plain     mixing
     energy convergence thresh.=      1.0E-04
     force convergence thresh. =      1.0E-03
     press convergence thresh. =      5.0E-01
     Exchange-correlation= VDW-DF2-B86R
                           (   1   4  26   0   2   0   0)
     nstep                     =           50


     celldm(1)=   4.664470  celldm(2)=   0.000000  celldm(3)=   2.725700
     celldm(4)=   0.000000  celldm(5)=   0.000000  celldm(6)=   0.000000

     crystal axes: (cart. coord. in units of alat)
               a(1) = (   1.000000   0.000000   0.000000 )  
               a(2) = (  -0.500000   0.866025   0.000000 )  
               a(3) = (   0.000000   0.000000   2.725700 )  

     reciprocal axes: (cart. coord. in units 2 pi/alat)
               b(1) = (  1.000000  0.577350 -0.000000 )  
               b(2) = (  0.000000  1.154701  0.000000 )  
               b(3) = (  0.000000 -0.000000  0.366878 )  


     PseudoPot. # 1 for C  read from file:
     ../../../Pseudo/PBE/C.upf
     MD5 check sum: 34a24e64c0a39f27c6c36b90a16ac686
     Pseudo is Norm-conserving + core correction, Zval =  4.0
     Generated using ONCVPSP code by D. R. Hamann
     Using radial grid of 1248 points,  4 beta functions with: 
                l(1) =   0
                l(2) =   0
                l(3) =   1
                l(4) =   1

     atomic species   valence    mass     pseudopotential
        C              4.00    12.01100     C ( 1.00)

     24 Sym. Ops., with inversion, found (12 have fractional translation)


                                    s                        frac. trans.

      isym =  1     identity                                     

 cryst.   s( 1) = (     1          0          0      )
                  (     0          1          0      )
                  (     0          0          1      )

 cart.    s( 1) = (  1.0000000  0.0000000  0.0000000 )
                  (  0.0000000  1.0000000  0.0000000 )
                  (  0.0000000  0.0000000  1.0000000 )


      isym =  2     180 deg rotation - cart. axis [0,0,1]        

 cryst.   s( 2) = (    -1          0          0      )    f =(  0.0000000 )
                  (     0         -1          0      )       (  0.0000000 )
                  (     0          0          1      )       ( -0.5000000 )

 cart.    s( 2) = ( -1.0000000  0.0000000  0.0000000 )    f =(  0.0000000 )
                  (  0.0000000 -1.0000000  0.0000000 )       (  0.0000000 )
                  (  0.0000000  0.0000000  1.0000000 )       ( -1.3628500 )


      isym =  3     180 deg rotation - cart. axis [0,1,0]        

 cryst.   s( 3) = (    -1          0          0      )
                  (     1          1          0      )
                  (     0          0         -1      )

 cart.    s( 3) = ( -1.0000000  0.0000000  0.0000000 )
                  (  0.0000000  1.0000000  0.0000000 )
                  (  0.0000000  0.0000000 -1.0000000 )


      isym =  4     180 deg rotation - cart. axis [1,0,0]        

 cryst.   s( 4) = (     1          0          0      )    f =(  0.0000000 )
                  (    -1         -1          0      )       (  0.0000000 )
                  (     0          0         -1      )       (  0.5000000 )

 cart.    s( 4) = (  1.0000000  0.0000000  0.0000000 )    f =(  0.0000000 )
                  (  0.0000000 -1.0000000  0.0000000 )       (  0.0000000 )
                  (  0.0000000  0.0000000 -1.0000000 )       (  1.3628500 )


      isym =  5      60 deg rotation - cryst. axis [0,0,1]       

 cryst.   s( 5) = (     1          1          0      )    f =(  0.0000000 )
                  (    -1          0          0      )       (  0.0000000 )
                  (     0          0          1      )       ( -0.5000000 )

 cart.    s( 5) = (  0.5000000 -0.8660254  0.0000000 )    f =(  0.0000000 )
                  (  0.8660254  0.5000000  0.0000000 )       (  0.0000000 )
                  (  0.0000000  0.0000000  1.0000000 )       ( -1.3628500 )


      isym =  6      60 deg rotation - cryst. axis [0,0,-1]      

 cryst.   s( 6) = (     0         -1          0      )    f =(  0.0000000 )
                  (     1          1          0      )       (  0.0000000 )
                  (     0          0          1      )       ( -0.5000000 )

 cart.    s( 6) = (  0.5000000  0.8660254  0.0000000 )    f =(  0.0000000 )
                  ( -0.8660254  0.5000000  0.0000000 )       (  0.0000000 )
                  (  0.0000000  0.0000000  1.0000000 )       ( -1.3628500 )


      isym =  7     120 deg rotation - cryst. axis [0,0,1]       

 cryst.   s( 7) = (     0          1          0      )
                  (    -1         -1          0      )
                  (     0          0          1      )

 cart.    s( 7) = ( -0.5000000 -0.8660254  0.0000000 )
                  (  0.8660254 -0.5000000  0.0000000 )
                  (  0.0000000  0.0000000  1.0000000 )


      isym =  8     120 deg rotation - cryst. axis [0,0,-1]      

 cryst.   s( 8) = (    -1         -1          0      )
                  (     1          0          0      )
                  (     0          0          1      )

 cart.    s( 8) = ( -0.5000000  0.8660254  0.0000000 )
                  ( -0.8660254 -0.5000000  0.0000000 )
                  (  0.0000000  0.0000000  1.0000000 )


      isym =  9     180 deg rotation - cryst. axis [1,-1,0]      

 cryst.   s( 9) = (     0         -1          0      )
                  (    -1          0          0      )
                  (     0          0         -1      )

 cart.    s( 9) = (  0.5000000 -0.8660254  0.0000000 )
                  ( -0.8660254 -0.5000000  0.0000000 )
                  (  0.0000000  0.0000000 -1.0000000 )


      isym = 10     180 deg rotation - cryst. axis [2,1,0]       

 cryst.   s(10) = (     1          1          0      )
                  (     0         -1          0      )
                  (     0          0         -1      )

 cart.    s(10) = (  0.5000000  0.8660254  0.0000000 )
                  (  0.8660254 -0.5000000  0.0000000 )
                  (  0.0000000  0.0000000 -1.0000000 )


      isym = 11     180 deg rotation - cryst. axis [0,1,0]       

 cryst.   s(11) = (    -1         -1          0      )    f =(  0.0000000 )
                  (     0          1          0      )       (  0.0000000 )
                  (     0          0         -1      )       (  0.5000000 )

 cart.    s(11) = ( -0.5000000 -0.8660254  0.0000000 )    f =(  0.0000000 )
                  ( -0.8660254  0.5000000  0.0000000 )       (  0.0000000 )
                  (  0.0000000  0.0000000 -1.0000000 )       (  1.3628500 )


      isym = 12     180 deg rotation - cryst. axis [1,1,0]       

 cryst.   s(12) = (     0          1          0      )    f =(  0.0000000 )
                  (     1          0          0      )       (  0.0000000 )
                  (     0          0         -1      )       (  0.5000000 )

 cart.    s(12) = ( -0.5000000  0.8660254  0.0000000 )    f =(  0.0000000 )
                  (  0.8660254  0.5000000  0.0000000 )       (  0.0000000 )
                  (  0.0000000  0.0000000 -1.0000000 )       (  1.3628500 )


      isym = 13     inversion                                    

 cryst.   s(13) = (    -1          0          0      )    f =(  0.0000000 )
                  (     0         -1          0      )       (  0.0000000 )
                  (     0          0         -1      )       (  0.5000000 )

 cart.    s(13) = ( -1.0000000  0.0000000  0.0000000 )    f =(  0.0000000 )
                  (  0.0000000 -1.0000000  0.0000000 )       (  0.0000000 )
                  (  0.0000000  0.0000000 -1.0000000 )       (  1.3628500 )


      isym = 14     inv. 180 deg rotation - cart. axis [0,0,1]   

 cryst.   s(14) = (     1          0          0      )
                  (     0          1          0      )
                  (     0          0         -1      )

 cart.    s(14) = (  1.0000000  0.0000000  0.0000000 )
                  (  0.0000000  1.0000000  0.0000000 )
                  (  0.0000000  0.0000000 -1.0000000 )


      isym = 15     inv. 180 deg rotation - cart. axis [0,1,0]   

 cryst.   s(15) = (     1          0          0      )    f =(  0.0000000 )
                  (    -1         -1          0      )       (  0.0000000 )
                  (     0          0          1      )       ( -0.5000000 )

 cart.    s(15) = (  1.0000000  0.0000000  0.0000000 )    f =(  0.0000000 )
                  (  0.0000000 -1.0000000  0.0000000 )       (  0.0000000 )
                  (  0.0000000  0.0000000  1.0000000 )       ( -1.3628500 )


      isym = 16     inv. 180 deg rotation - cart. axis [1,0,0]   

 cryst.   s(16) = (    -1          0          0      )
                  (     1          1          0      )
                  (     0          0          1      )

 cart.    s(16) = ( -1.0000000  0.0000000  0.0000000 )
                  (  0.0000000  1.0000000  0.0000000 )
                  (  0.0000000  0.0000000  1.0000000 )


      isym = 17     inv.  60 deg rotation - cryst. axis [0,0,1]  

 cryst.   s(17) = (    -1         -1          0      )
                  (     1          0          0      )
                  (     0          0         -1      )

 cart.    s(17) = ( -0.5000000  0.8660254  0.0000000 )
                  ( -0.8660254 -0.5000000  0.0000000 )
                  (  0.0000000  0.0000000 -1.0000000 )


      isym = 18     inv.  60 deg rotation - cryst. axis [0,0,-1] 

 cryst.   s(18) = (     0          1          0      )
                  (    -1         -1          0      )
                  (     0          0         -1      )

 cart.    s(18) = ( -0.5000000 -0.8660254  0.0000000 )
                  (  0.8660254 -0.5000000  0.0000000 )
                  (  0.0000000  0.0000000 -1.0000000 )


      isym = 19     inv. 120 deg rotation - cryst. axis [0,0,1]  

 cryst.   s(19) = (     0         -1          0      )    f =(  0.0000000 )
                  (     1          1          0      )       (  0.0000000 )
                  (     0          0         -1      )       (  0.5000000 )

 cart.    s(19) = (  0.5000000  0.8660254  0.0000000 )    f =(  0.0000000 )
                  ( -0.8660254  0.5000000  0.0000000 )       (  0.0000000 )
                  (  0.0000000  0.0000000 -1.0000000 )       (  1.3628500 )


      isym = 20     inv. 120 deg rotation - cryst. axis [0,0,-1] 

 cryst.   s(20) = (     1          1          0      )    f =(  0.0000000 )
                  (    -1          0          0      )       (  0.0000000 )
                  (     0          0         -1      )       (  0.5000000 )

 cart.    s(20) = (  0.5000000 -0.8660254  0.0000000 )    f =(  0.0000000 )
                  (  0.8660254  0.5000000  0.0000000 )       (  0.0000000 )
                  (  0.0000000  0.0000000 -1.0000000 )       (  1.3628500 )


      isym = 21     inv. 180 deg rotation - cryst. axis [1,-1,0] 

 cryst.   s(21) = (     0          1          0      )    f =(  0.0000000 )
                  (     1          0          0      )       (  0.0000000 )
                  (     0          0          1      )       ( -0.5000000 )

 cart.    s(21) = ( -0.5000000  0.8660254  0.0000000 )    f =(  0.0000000 )
                  (  0.8660254  0.5000000  0.0000000 )       (  0.0000000 )
                  (  0.0000000  0.0000000  1.0000000 )       ( -1.3628500 )


      isym = 22     inv. 180 deg rotation - cryst. axis [2,1,0]  

 cryst.   s(22) = (    -1         -1          0      )    f =(  0.0000000 )
                  (     0          1          0      )       (  0.0000000 )
                  (     0          0          1      )       ( -0.5000000 )

 cart.    s(22) = ( -0.5000000 -0.8660254  0.0000000 )    f =(  0.0000000 )
                  ( -0.8660254  0.5000000  0.0000000 )       (  0.0000000 )
                  (  0.0000000  0.0000000  1.0000000 )       ( -1.3628500 )


      isym = 23     inv. 180 deg rotation - cryst. axis [0,1,0]  

 cryst.   s(23) = (     1          1          0      )
                  (     0         -1          0      )
                  (     0          0          1      )

 cart.    s(23) = (  0.5000000  0.8660254  0.0000000 )
                  (  0.8660254 -0.5000000  0.0000000 )
                  (  0.0000000  0.0000000  1.0000000 )


      isym = 24     inv. 180 deg rotation - cryst. axis [1,1,0]  

 cryst.   s(24) = (     0         -1          0      )
                  (    -1          0          0      )
                  (     0          0          1      )

 cart.    s(24) = (  0.5000000 -0.8660254  0.0000000 )
                  ( -0.8660254 -0.5000000  0.0000000 )
                  (  0.0000000  0.0000000  1.0000000 )


     point group D_6h(6/mmm)
     there are 12 classes
     the character table:

       E     2C6   2C3   C2    3C2'  3C2'' i     2S3   2S6   s_h   3s_d  3s_v 
A_1g   1.00  1.00  1.00  1.00  1.00  1.00  1.00  1.00  1.00  1.00  1.00  1.00
A_2g   1.00  1.00  1.00  1.00 -1.00 -1.00  1.00  1.00  1.00  1.00 -1.00 -1.00
B_1g   1.00 -1.00  1.00 -1.00  1.00 -1.00  1.00 -1.00  1.00 -1.00  1.00 -1.00
B_2g   1.00 -1.00  1.00 -1.00 -1.00  1.00  1.00 -1.00  1.00 -1.00 -1.00  1.00
E_1g   2.00  1.00 -1.00 -2.00  0.00  0.00  2.00  1.00 -1.00 -2.00  0.00  0.00
E_2g   2.00 -1.00 -1.00  2.00  0.00  0.00  2.00 -1.00 -1.00  2.00  0.00  0.00
A_1u   1.00  1.00  1.00  1.00  1.00  1.00 -1.00 -1.00 -1.00 -1.00 -1.00 -1.00
A_2u   1.00  1.00  1.00  1.00 -1.00 -1.00 -1.00 -1.00 -1.00 -1.00  1.00  1.00
B_1u   1.00 -1.00  1.00 -1.00  1.00 -1.00 -1.00  1.00 -1.00  1.00 -1.00  1.00
B_2u   1.00 -1.00  1.00 -1.00 -1.00  1.00 -1.00  1.00 -1.00  1.00  1.00 -1.00
E_1u   2.00  1.00 -1.00 -2.00  0.00  0.00 -2.00 -1.00  1.00  2.00  0.00  0.00
E_2u   2.00 -1.00 -1.00  2.00  0.00  0.00 -2.00  1.00  1.00 -2.00  0.00  0.00

     the symmetry operations in each class and the name of the first element:

     E        1
          identity                                               
     2C6      5    6
           60 deg rotation - cryst. axis [0,0,1]                 
     2C3      7    8
          120 deg rotation - cryst. axis [0,0,1]                 
     C2       2
          180 deg rotation - cart. axis [0,0,1]                  
     3C2'     4   12   11
          180 deg rotation - cart. axis [1,0,0]                  
     3C2''    3    9   10
          180 deg rotation - cart. axis [0,1,0]                  
     i       13
          inversion                                              
     2S3     17   18
          inv.  60 deg rotation - cryst. axis [0,0,1]            
     2S6     19   20
          inv. 120 deg rotation - cryst. axis [0,0,1]            
     s_h     14
          inv. 180 deg rotation - cart. axis [0,0,1]             
     3s_d    16   24   23
          inv. 180 deg rotation - cart. axis [1,0,0]             
     3s_v    15   21   22
          inv. 180 deg rotation - cart. axis [0,1,0]             

   Cartesian axes

     site n.     atom                  positions (alat units)
         1           C   tau(   1) = (   0.0000000   0.0000000   0.0000000  )
         2           C   tau(   2) = (   0.0000000   0.0000000   1.3628500  )
         3           C   tau(   3) = (   0.5000005   0.2886748   0.0000000  )
         4           C   tau(   4) = (  -0.0000005   0.5773506   1.3628500  )

   Crystallographic axes

     site n.     atom                  positions (cryst. coord.)
         1           C   tau(   1) = (  0.0000000  0.0000000  0.0000000  )
         2           C   tau(   2) = (  0.0000000  0.0000000  0.5000000  )
         3           C   tau(   3) = (  0.6666670  0.3333330  0.0000000  )
         4           C   tau(   4) = (  0.3333330  0.6666670  0.5000000  )

     number of k points=    38  Marzari-Vanderbilt smearing, width (Ry)=  0.0050
                       cart. coord. in units 2pi/alat
        k(    1) = (   0.0000000   0.0000000   0.0000000), wk =   0.0046296
        k(    2) = (   0.0000000   0.0000000   0.1222927), wk =   0.0092593
        k(    3) = (   0.0000000   0.0962250   0.0000000), wk =   0.0277778
        k(    4) = (   0.0000000   0.0962250   0.1222927), wk =   0.0555556
        k(    5) = (   0.0000000   0.1924501   0.0000000), wk =   0.0277778
        k(    6) = (   0.0000000   0.1924501   0.1222927), wk =   0.0555556
        k(    7) = (   0.0000000   0.2886751   0.0000000), wk =   0.0277778
        k(    8) = (   0.0000000   0.2886751   0.1222927), wk =   0.0555556
        k(    9) = (   0.0000000   0.3849002   0.0000000), wk =   0.0277778
        k(   10) = (   0.0000000   0.3849002   0.1222927), wk =   0.0555556
        k(   11) = (   0.0000000   0.4811252   0.0000000), wk =   0.0277778
        k(   12) = (   0.0000000   0.4811252   0.1222927), wk =   0.0555556
        k(   13) = (   0.0000000  -0.5773503   0.0000000), wk =   0.0138889
        k(   14) = (   0.0000000  -0.5773503   0.1222927), wk =   0.0277778
        k(   15) = (   0.0833333   0.1443376   0.0000000), wk =   0.0277778
        k(   16) = (   0.0833333   0.1443376   0.1222927), wk =   0.0555556
        k(   17) = (   0.0833333   0.2405626   0.0000000), wk =   0.0555556
        k(   18) = (   0.0833333   0.2405626   0.1222927), wk =   0.1111111
        k(   19) = (   0.0833333   0.3367877   0.0000000), wk =   0.0555556
        k(   20) = (   0.0833333   0.3367877   0.1222927), wk =   0.1111111
        k(   21) = (   0.0833333   0.4330127   0.0000000), wk =   0.0555556
        k(   22) = (   0.0833333   0.4330127   0.1222927), wk =   0.1111111
        k(   23) = (   0.0833333   0.5292377   0.0000000), wk =   0.0555556
        k(   24) = (   0.0833333   0.5292377   0.1222927), wk =   0.1111111
        k(   25) = (   0.1666667   0.2886751   0.0000000), wk =   0.0277778
        k(   26) = (   0.1666667   0.2886751   0.1222927), wk =   0.0555556
        k(   27) = (   0.1666667   0.3849002   0.0000000), wk =   0.0555556
        k(   28) = (   0.1666667   0.3849002   0.1222927), wk =   0.1111111
        k(   29) = (   0.1666667   0.4811252   0.0000000), wk =   0.0555556
        k(   30) = (   0.1666667   0.4811252   0.1222927), wk =   0.1111111
        k(   31) = (   0.1666667   0.5773503   0.0000000), wk =   0.0277778
        k(   32) = (   0.1666667   0.5773503   0.1222927), wk =   0.0555556
        k(   33) = (   0.2500000   0.4330127   0.0000000), wk =   0.0277778
        k(   34) = (   0.2500000   0.4330127   0.1222927), wk =   0.0555556
        k(   35) = (   0.2500000   0.5292377   0.0000000), wk =   0.0555556
        k(   36) = (   0.2500000   0.5292377   0.1222927), wk =   0.1111111
        k(   37) = (   0.3333333   0.5773503   0.0000000), wk =   0.0092593
        k(   38) = (   0.3333333   0.5773503   0.1222927), wk =   0.0185185

                       cryst. coord.
        k(    1) = (   0.0000000   0.0000000   0.0000000), wk =   0.0046296
        k(    2) = (   0.0000000   0.0000000   0.3333333), wk =   0.0092593
        k(    3) = (   0.0000000   0.0833333   0.0000000), wk =   0.0277778
        k(    4) = (   0.0000000   0.0833333   0.3333333), wk =   0.0555556
        k(    5) = (   0.0000000   0.1666667   0.0000000), wk =   0.0277778
        k(    6) = (   0.0000000   0.1666667   0.3333333), wk =   0.0555556
        k(    7) = (   0.0000000   0.2500000   0.0000000), wk =   0.0277778
        k(    8) = (   0.0000000   0.2500000   0.3333333), wk =   0.0555556
        k(    9) = (   0.0000000   0.3333333   0.0000000), wk =   0.0277778
        k(   10) = (   0.0000000   0.3333333   0.3333333), wk =   0.0555556
        k(   11) = (   0.0000000   0.4166667   0.0000000), wk =   0.0277778
        k(   12) = (   0.0000000   0.4166667   0.3333333), wk =   0.0555556
        k(   13) = (   0.0000000  -0.5000000   0.0000000), wk =   0.0138889
        k(   14) = (   0.0000000  -0.5000000   0.3333333), wk =   0.0277778
        k(   15) = (   0.0833333   0.0833333   0.0000000), wk =   0.0277778
        k(   16) = (   0.0833333   0.0833333   0.3333333), wk =   0.0555556
        k(   17) = (   0.0833333   0.1666667   0.0000000), wk =   0.0555556
        k(   18) = (   0.0833333   0.1666667   0.3333333), wk =   0.1111111
        k(   19) = (   0.0833333   0.2500000   0.0000000), wk =   0.0555556
        k(   20) = (   0.0833333   0.2500000   0.3333333), wk =   0.1111111
        k(   21) = (   0.0833333   0.3333333   0.0000000), wk =   0.0555556
        k(   22) = (   0.0833333   0.3333333   0.3333333), wk =   0.1111111
        k(   23) = (   0.0833333   0.4166667   0.0000000), wk =   0.0555556
        k(   24) = (   0.0833333   0.4166667   0.3333333), wk =   0.1111111
        k(   25) = (   0.1666667   0.1666667   0.0000000), wk =   0.0277778
        k(   26) = (   0.1666667   0.1666667   0.3333333), wk =   0.0555556
        k(   27) = (   0.1666667   0.2500000   0.0000000), wk =   0.0555556
        k(   28) = (   0.1666667   0.2500000   0.3333333), wk =   0.1111111
        k(   29) = (   0.1666667   0.3333333   0.0000000), wk =   0.0555556
        k(   30) = (   0.1666667   0.3333333   0.3333333), wk =   0.1111111
        k(   31) = (   0.1666667   0.4166667   0.0000000), wk =   0.0277778
        k(   32) = (   0.1666667   0.4166667   0.3333333), wk =   0.0555556
        k(   33) = (   0.2500000   0.2500000   0.0000000), wk =   0.0277778
        k(   34) = (   0.2500000   0.2500000   0.3333333), wk =   0.0555556
        k(   35) = (   0.2500000   0.3333333   0.0000000), wk =   0.0555556
        k(   36) = (   0.2500000   0.3333333   0.3333333), wk =   0.1111111
        k(   37) = (   0.3333333   0.3333333   0.0000000), wk =   0.0092593
        k(   38) = (   0.3333333   0.3333333   0.3333333), wk =   0.0185185

     Dense  grid:    65617 G-vectors     FFT dimensions: (  40,  40, 108)

     Dynamical RAM for                 wfc:       0.19 MB

     Dynamical RAM for     wfc (w. buffer):       7.31 MB

     Dynamical RAM for           str. fact:       0.13 MB

     Dynamical RAM for           local pot:       0.00 MB

     Dynamical RAM for          nlocal pot:       0.50 MB

     Dynamical RAM for                qrad:       1.16 MB

     Dynamical RAM for          rho,v,vnew:       0.89 MB

     Dynamical RAM for               rhoin:       0.30 MB

     Dynamical RAM for            rho*nmix:       2.00 MB

     Dynamical RAM for           G-vectors:       0.53 MB

     Dynamical RAM for          h,s,v(r/c):       0.03 MB

     Dynamical RAM for          <psi|beta>:       0.01 MB

     Dynamical RAM for                 psi:       0.37 MB

     Dynamical RAM for                hpsi:       0.37 MB

     Dynamical RAM for      wfcinit/wfcrot:       0.51 MB

     Estimated static dynamical RAM per process >      11.91 MB

     Estimated max dynamical RAM per process >      14.69 MB

     Estimated total dynamical RAM >     117.54 MB

     Initial potential from superposition of free atoms

     starting charge      15.9998, renormalised to      16.0000


     %%%%%%%%%%%%%%%%%%%%%%%%%%%%%%%%%%%%%%%%%%%%%%%%%%%%%%%%%%%%%%%%%%%%%%%%
     %                                                                      %
     % You are using vdW-DF, which was implemented by the Thonhauser group. %
     % Please cite the following two papers that made this development      %
     % possible and the two reviews that describe the various versions:     %
     %                                                                      %
     %   T. Thonhauser et al., PRL 115, 136402 (2015).                      %
     %   T. Thonhauser et al., PRB 76, 125112 (2007).                       %
     %   K. Berland et al., Rep. Prog. Phys. 78, 066501 (2015).             %
     %   D.C. Langreth et al., J. Phys.: Condens. Matter 21, 084203 (2009). %
     %                                                                      %
     % If you are calculating stress with vdW-DF, please also cite:         %
     %                                                                      %
     %   R. Sabatini et al., J. Phys.: Condens. Matter 24, 424209 (2012).   %
     %                                                                      %
     %%%%%%%%%%%%%%%%%%%%%%%%%%%%%%%%%%%%%%%%%%%%%%%%%%%%%%%%%%%%%%%%%%%%%%%%

     %%%%%%%%%%%%%%%%%%%%%%%%%%%%%%%%%%%%%%%%%%%%%%%%%%%%%%%%%%%%%%%%%%%%%%%%
     %                                                                      %
     %  vdW-DF NEWS:                                                        %
     %                                                                      %
     %  * vdW-DF3 is now available. DOI: 10.1021/acs.jctc.0c00471           %
     %    use with input_dft = 'vdW-DF3-opt1' or 'vdW-DF3-opt2'             %
     %                                                                      %
     %  * Unscreened and range-separated hybrid vdW-DF-cx functionals       %
     %    DOI: 10.1063/1.4986522 and 10.1088/1361-648X/ac2ad2               %
     %    use with input_dft = 'vdW-DF-cx0'    and 'vdW-DF-ahcx'            %
     %  * Unscreened and range-separated hybrid vdW-DF2-b86r functionals    %
     %    DOI: 10.1063/1.4986522 and DOI: 10.1103/PhysRevX.12.041003        %
     %    use with input_dft = 'vdW-DF2-br0' and 'vdW-DF2-ahbr'             %
     %                                                                      %
     %%%%%%%%%%%%%%%%%%%%%%%%%%%%%%%%%%%%%%%%%%%%%%%%%%%%%%%%%%%%%%%%%%%%%%%%


     Carrying out vdW-DF run using the following parameters:
     Nqs    =  20  Npoints =  1024  r_max =  100.000
     q_mesh =  0.00001000  0.04494208  0.09755937  0.15916263
               0.23128650  0.31572767  0.41458969  0.53033537
               0.66584808  0.82450364  1.01025438  1.22772762
               1.48234092  1.78043706  2.12944203  2.53805004
               3.01644009  3.57652955  4.23227104  5.00000000


     -----------------------------------------------
     Non-local corr. energy    =       0.15217375 Ry
     -----------------------------------------------

     Starting wfcs are   16 randomized atomic wfcs

     total cpu time spent up to now is       10.8 secs

     Self-consistent Calculation

     iteration #  1     ecut=   160.00 Ry     beta= 0.70
     Davidson diagonalization with overlap

---- Real-time Memory Report at c_bands before calling an iterative solver
             0 MiB given to the printing process from OS
             0 MiB allocation reported by mallinfo(arena+hblkhd)
             0 MiB available memory on the node where the printing process lives
------------------
     ethr =  1.00E-02,  avg # of iterations =  3.3


     -----------------------------------------------
     Non-local corr. energy    =       0.17958022 Ry
     -----------------------------------------------


     total cpu time spent up to now is       12.6 secs

     total energy              =     -48.22215211 Ry
     estimated scf accuracy    <       0.34129842 Ry

     iteration #  2     ecut=   160.00 Ry     beta= 0.70
     Davidson diagonalization with overlap

---- Real-time Memory Report at c_bands before calling an iterative solver
             0 MiB given to the printing process from OS
             0 MiB allocation reported by mallinfo(arena+hblkhd)
             0 MiB available memory on the node where the printing process lives
------------------
     ethr =  2.13E-03,  avg # of iterations =  2.8


     -----------------------------------------------
     Non-local corr. energy    =       0.18015178 Ry
     -----------------------------------------------


     total cpu time spent up to now is       14.0 secs

     total energy              =     -48.26458587 Ry
     estimated scf accuracy    <       0.00447935 Ry

     iteration #  3     ecut=   160.00 Ry     beta= 0.70
     Davidson diagonalization with overlap

---- Real-time Memory Report at c_bands before calling an iterative solver
             0 MiB given to the printing process from OS
             0 MiB allocation reported by mallinfo(arena+hblkhd)
             0 MiB available memory on the node where the printing process lives
------------------
     c_bands:  1 eigenvalues not converged
     ethr =  2.80E-05,  avg # of iterations =  9.1


     -----------------------------------------------
     Non-local corr. energy    =       0.17962462 Ry
     -----------------------------------------------


     total cpu time spent up to now is       16.4 secs

     total energy              =     -48.26574889 Ry
     estimated scf accuracy    <       0.00037361 Ry

     iteration #  4     ecut=   160.00 Ry     beta= 0.70
     Davidson diagonalization with overlap

---- Real-time Memory Report at c_bands before calling an iterative solver
             0 MiB given to the printing process from OS
             0 MiB allocation reported by mallinfo(arena+hblkhd)
             0 MiB available memory on the node where the printing process lives
------------------
     c_bands:  1 eigenvalues not converged
     ethr =  2.34E-06,  avg # of iterations =  4.7


     -----------------------------------------------
     Non-local corr. energy    =       0.17991585 Ry
     -----------------------------------------------


     total cpu time spent up to now is       18.0 secs

     total energy              =     -48.26579304 Ry
     estimated scf accuracy    <       0.00001822 Ry

     iteration #  5     ecut=   160.00 Ry     beta= 0.70
     Davidson diagonalization with overlap

---- Real-time Memory Report at c_bands before calling an iterative solver
             0 MiB given to the printing process from OS
             0 MiB allocation reported by mallinfo(arena+hblkhd)
             0 MiB available memory on the node where the printing process lives
------------------
     c_bands:  1 eigenvalues not converged
     ethr =  1.14E-07,  avg # of iterations =  2.8


     -----------------------------------------------
     Non-local corr. energy    =       0.17990534 Ry
     -----------------------------------------------


     total cpu time spent up to now is       19.4 secs

     End of self-consistent calculation

          k = 0.0000 0.0000 0.0000 (  8235 PWs)   bands (ev):

   -12.7347 -12.4302  -1.6725   0.3428   3.8333   3.8334   3.8517   3.8517
    10.8492  15.2805  15.2806  15.3340

     occupation numbers 
     1.0000   1.0000   1.0000   1.0000   1.0000   1.0000   1.0000   1.0000
     0.0000   0.0000   0.0000   0.0000

          k = 0.0000 0.0000 0.1223 (  8193 PWs)   bands (ev):

   -12.6624 -12.5103  -1.2383  -0.2477   3.8379   3.8380   3.8471   3.8471
    12.1395  15.2935  15.2936  15.3202

     occupation numbers 
     1.0000   1.0000   1.0000   1.0000   1.0000   1.0000   1.0000   1.0000
     0.0000   0.0000   0.0000   0.0000

          k = 0.0000 0.0962 0.0000 (  8223 PWs)   bands (ev):

   -12.5698 -12.2683  -1.4710   0.5310   3.1782   3.2119   3.4919   3.5201
    11.0496  15.3304  15.4150  15.9725

     occupation numbers 
     1.0000   1.0000   1.0000   1.0000   1.0000   1.0000   1.0000   1.0000
     0.0000   0.0000   0.0000   0.0000

          k = 0.0000 0.0962 0.1223 (  8210 PWs)   bands (ev):

   -12.4981 -12.3476  -1.0393  -0.0552   3.1866   3.2034   3.4989   3.5130
    12.3298  15.1564  15.3939  15.4305

     occupation numbers 
     1.0000   1.0000   1.0000   1.0000   1.0000   1.0000   1.0000   1.0000
     0.0000   0.0000   0.0000   0.0000

          k = 0.0000 0.1925 0.0000 (  8210 PWs)   bands (ev):

   -12.0766 -11.7843  -0.8707   1.0890   1.5316   1.5961   2.6964   2.7368
    11.6523  15.2229  15.4054  16.0154

     occupation numbers 
     1.0000   1.0000   1.0000   1.0000   1.0000   1.0000   1.0000   1.0000
     0.0000   0.0000   0.0000   0.0000

          k = 0.0000 0.1925 0.1223 (  8221 PWs)   bands (ev):

   -12.0070 -11.8610  -0.4472   0.5168   1.5477   1.5799   2.7064   2.7266
    12.8979  15.1910  15.3529  15.7772

     occupation numbers 
     1.0000   1.0000   1.0000   1.0000   1.0000   1.0000   1.0000   1.0000
     0.0000   0.0000   0.0000   0.0000

          k = 0.0000 0.2887 0.0000 (  8204 PWs)   bands (ev):

   -11.2610 -10.9839  -0.5778  -0.4781   0.1130   1.8145   1.8625   1.9922
    12.6523  13.7964  14.4453  14.8843

     occupation numbers 
     1.0000   1.0000   1.0000   1.0000   1.0000   1.0000   1.0000   1.0000
     0.0000   0.0000   0.0000   0.0000

          k = 0.0000 0.2887 0.1223 (  8193 PWs)   bands (ev):

   -11.1948 -11.0564  -0.5533  -0.5035   0.5217   1.4473   1.8264   1.8504
    13.6611  14.1090  14.2363  14.9401

     occupation numbers 
     1.0000   1.0000   1.0000   1.0000   1.0000   1.0000   1.0000   1.0000
     0.0000   0.0000   0.0000   0.0000

          k = 0.0000 0.3849 0.0000 (  8172 PWs)   bands (ev):

   -10.1354  -9.8790  -2.7924  -2.6578   1.0794   1.1318   1.4411   3.1728
    11.3600  12.2826  14.0073  14.5275

     occupation numbers 
     1.0000   1.0000   1.0000   1.0000   1.0000   1.0000   1.0000   1.0000
     0.0000   0.0000   0.0000   0.0000

          k = 0.0000 0.3849 0.1223 (  8178 PWs)   bands (ev):

   -10.0739  -9.9458  -2.7595  -2.6922   1.0924   1.1186   1.8231   2.6787
    11.5374  12.0050  14.5676  14.6896

     occupation numbers 
     1.0000   1.0000   1.0000   1.0000   1.0000   1.0000   1.0000   1.0000
     0.0000   0.0000   0.0000   0.0000

          k = 0.0000 0.4811 0.0000 (  8184 PWs)   bands (ev):

    -8.7300  -8.5019  -4.9011  -4.7371   0.6054   0.6600   2.9943   4.3865
     9.2147  10.2323  14.2344  14.6165

     occupation numbers 
     1.0000   1.0000   1.0000   1.0000   1.0000   1.0000   1.0000   1.0000
     0.0000   0.0000   0.0000   0.0000

          k = 0.0000 0.4811 0.1223 (  8170 PWs)   bands (ev):

    -8.6750  -8.5610  -4.8614  -4.7795   0.6190   0.6463   3.3209   4.0168
     9.3822   9.8974  14.3302  14.5218

     occupation numbers 
     1.0000   1.0000   1.0000   1.0000   1.0000   1.0000   1.0000   1.0000
     0.0000   0.0000   0.0000   0.0000

          k = 0.0000-0.5774 0.0000 (  8198 PWs)   bands (ev):

    -7.4235  -7.3104  -6.3532  -6.2675   0.4427   0.4980   4.0974   4.7967
     8.3668   9.0626  14.1440  14.5491

     occupation numbers 
     1.0000   1.0000   1.0000   1.0000   1.0000   1.0000   1.0000   1.0000
     0.0000   0.0000   0.0000   0.0000

          k = 0.0000-0.5774 0.1223 (  8186 PWs)   bands (ev):

    -7.3915  -7.3344  -6.3394  -6.2960   0.4564   0.4841   4.3161   4.6792
     8.3774   8.7380  14.2415  14.4446

     occupation numbers 
     1.0000   1.0000   1.0000   1.0000   1.0000   1.0000   1.0000   1.0000
     0.0000   0.0000   0.0000   0.0000

          k = 0.0833 0.1443 0.0000 (  8217 PWs)   bands (ev):

   -12.2407 -11.9454  -1.0700   0.9043   2.1479   2.1803   2.8212   2.8449
    11.4522  15.6080  15.7235  16.5427

     occupation numbers 
     1.0000   1.0000   1.0000   1.0000   1.0000   1.0000   1.0000   1.0000
     0.0000   0.0000   0.0000   0.0000

          k = 0.0833 0.1443 0.1223 (  8219 PWs)   bands (ev):

   -12.1704 -12.0229  -0.6437   0.3273   2.1564   2.1726   2.8266   2.8385
    12.7115  15.4127  15.6955  15.7933

     occupation numbers 
     1.0000   1.0000   1.0000   1.0000   1.0000   1.0000   1.0000   1.0000
     0.0000   0.0000   0.0000   0.0000

          k = 0.0833 0.2406 0.0000 (  8204 PWs)   bands (ev):

   -11.5863 -11.3032  -0.2771   0.4256   0.4943   1.6366   1.8163   1.8605
    12.2573  14.7276  15.1853  15.6873

     occupation numbers 
     1.0000   1.0000   1.0000   1.0000   1.0000   1.0000   1.0000   1.0000
     0.0000   0.0000   0.0000   0.0000

          k = 0.0833 0.2406 0.1223 (  8200 PWs)   bands (ev):

   -11.5188 -11.3774   0.1372   0.4427   0.4775   1.0802   1.8271   1.8492
    13.4625  14.8314  15.0332  15.6779

     occupation numbers 
     1.0000   1.0000   1.0000   1.0000   1.0000   1.0000   1.0000   1.0000
     0.0000   0.0000   0.0000   0.0000

          k = 0.0833 0.3368 0.0000 (  8187 PWs)   bands (ev):

   -10.6156 -10.3503  -1.6618  -1.5510   0.8832   0.9236   0.9828   2.6886
    12.4652  13.1757  13.4535  15.3826

     occupation numbers 
     1.0000   1.0000   1.0000   1.0000   1.0000   1.0000   1.0000   1.0000
     0.0000   0.0000   0.0000   0.0000

          k = 0.0833 0.3368 0.1223 (  8201 PWs)   bands (ev):

   -10.5521 -10.4196  -1.6346  -1.5792   0.9381   0.9677   1.2782   2.1687
    12.6055  12.9719  14.5986  15.4457

     occupation numbers 
     1.0000   1.0000   1.0000   1.0000   1.0000   1.0000   1.0000   1.0000
     0.0000   0.0000   0.0000   0.0000

          k = 0.0833 0.4330 0.0000 (  8173 PWs)   bands (ev):

    -9.3472  -9.1058  -3.7963  -3.6495   0.2854   0.3515   2.3472   3.9417
    10.1658  11.1012  14.9287  15.1228

     occupation numbers 
     1.0000   1.0000   1.0000   1.0000   1.0000   1.0000   1.0000   1.0000
     0.0000   0.0000   0.0000   0.0000

          k = 0.0833 0.4330 0.1223 (  8181 PWs)   bands (ev):

    -9.2892  -9.1686  -3.7605  -3.6871   0.3017   0.3347   2.7054   3.4960
    10.3493  10.8221  15.1364  15.3026

     occupation numbers 
     1.0000   1.0000   1.0000   1.0000   1.0000   1.0000   1.0000   1.0000
     0.0000   0.0000   0.0000   0.0000

          k = 0.0833 0.5292 0.0000 (  8176 PWs)   bands (ev):

    -7.8532  -7.6538  -5.7377  -5.5758  -0.0444   0.0243   3.8671   4.8918
     8.5419   9.3410  14.8661  15.2896

     occupation numbers 
     1.0000   1.0000   1.0000   1.0000   1.0000   1.0000   1.0000   1.0000
     0.0000   0.0000   0.0000   0.0000

          k = 0.0833 0.5292 0.1223 (  8168 PWs)   bands (ev):

    -7.8045  -7.7048  -5.6993  -5.6183  -0.0275   0.0069   4.1374   4.6598
     8.6213   9.0349  14.9662  15.1780

     occupation numbers 
     1.0000   1.0000   1.0000   1.0000   1.0000   1.0000   1.0000   1.0000
     0.0000   0.0000   0.0000   0.0000

          k = 0.1667 0.2887 0.0000 (  8195 PWs)   bands (ev):

   -10.7767 -10.5085  -0.8974  -0.8424   0.4646   0.5046   0.6951   2.5237
    12.9987  13.2620  13.4893  16.8506

     occupation numbers 
     1.0000   1.0000   1.0000   1.0000   1.0000   1.0000   1.0000   1.0000
     0.0000   0.0000   0.0000   0.0000

          k = 0.1667 0.2887 0.1223 (  8201 PWs)   bands (ev):

   -10.7126 -10.5786  -0.8832  -0.8557   0.4735   0.4935   1.0942   1.9957
    13.1179  13.3586  14.4041  16.6690

     occupation numbers 
     1.0000   1.0000   1.0000   1.0000   1.0000   1.0000   1.0000   1.0000
     0.0000   0.0000   0.0000   0.0000

          k = 0.1667 0.3849 0.0000 (  8192 PWs)   bands (ev):

    -9.6620  -9.4145  -2.6436  -2.5389  -0.6061  -0.5339   2.0089   3.6898
    10.9848  11.6260  14.6443  16.9464

     occupation numbers 
     1.0000   1.0000   1.0000   1.0000   1.0000   1.0000   1.0000   1.0000
     0.0000   0.0000   0.0000   0.0000

          k = 0.1667 0.3849 0.1223 (  8180 PWs)   bands (ev):

    -9.6025  -9.4789  -2.6176  -2.5653  -0.5889  -0.5528   2.3810   3.2120
    11.1364  11.4583  15.6307  16.9762

     occupation numbers 
     1.0000   1.0000   1.0000   1.0000   1.0000   1.0000   1.0000   1.0000
     0.0000   0.0000   0.0000   0.0000

          k = 0.1667 0.4811 0.0000 (  8176 PWs)   bands (ev):

    -8.2766  -8.0575  -4.5685  -4.4203  -1.1921  -1.1011   3.5569   4.9272
     9.0457   9.8101  16.3415  16.7077

     occupation numbers 
     1.0000   1.0000   1.0000   1.0000   1.0000   1.0000   1.0000   1.0000
     0.0000   0.0000   0.0000   0.0000

          k = 0.1667 0.4811 0.1223 (  8175 PWs)   bands (ev):

    -8.2236  -8.1142  -4.5325  -4.4584  -1.1699  -1.1245   3.8771   4.5615
     9.1951   9.5844  16.7704  16.8513

     occupation numbers 
     1.0000   1.0000   1.0000   1.0000   1.0000   1.0000   1.0000   1.0000
     0.0000   0.0000   0.0000   0.0000

          k = 0.1667 0.5774 0.0000 (  8176 PWs)   bands (ev):

    -7.0008  -6.8923  -5.9522  -5.8769  -1.3794  -1.2839   4.6963   5.3810
     8.2990   8.6152  16.5826  17.1475

     occupation numbers 
     1.0000   1.0000   1.0000   1.0000   1.0000   1.0000   1.0000   1.0000
     0.0000   0.0000   0.0000   0.0000

          k = 0.1667 0.5774 0.1223 (  8161 PWs)   bands (ev):

    -6.9702  -6.9154  -5.9403  -5.9021  -1.3561  -1.3084   4.9150   5.2723
     8.2499   8.4299  16.6793  16.9466

     occupation numbers 
     1.0000   1.0000   1.0000   1.0000   1.0000   1.0000   1.0000   1.0000
     0.0000   0.0000   0.0000   0.0000

          k = 0.2500 0.4330 0.0000 (  8195 PWs)   bands (ev):

    -8.4257  -8.2025  -3.6665  -3.5898  -2.0721  -2.0153   3.4351   4.9139
     9.3805   9.9966  16.1689  18.6015

     occupation numbers 
     1.0000   1.0000   1.0000   1.0000   1.0000   1.0000   1.0000   1.0000
     0.0000   0.0000   0.0000   0.0000

          k = 0.2500 0.4330 0.1223 (  8184 PWs)   bands (ev):

    -8.3719  -8.2603  -3.6465  -3.6081  -2.0603  -2.0319   3.7705   4.5047
     9.5351   9.8406  16.7205  17.6694

     occupation numbers 
     1.0000   1.0000   1.0000   1.0000   1.0000   1.0000   1.0000   1.0000
     0.0000   0.0000   0.0000   0.0000

          k = 0.2500 0.5292 0.0000 (  8187 PWs)   bands (ev):

    -6.9893  -6.8072  -5.1025  -4.9800  -2.7990  -2.7035   4.9829   6.0139
     7.9437   8.4981  17.8864  18.5588

     occupation numbers 
     1.0000   1.0000   1.0000   1.0000   1.0000   1.0000   1.0000   1.0000
     0.0000   0.0000   0.0000   0.0000

          k = 0.2500 0.5292 0.1223 (  8175 PWs)   bands (ev):

    -6.9447  -6.8537  -5.0728  -5.0115  -2.7769  -2.7291   5.2504   5.7761
     8.0400   8.3185  17.2283  17.4245

     occupation numbers 
     1.0000   1.0000   1.0000   1.0000   1.0000   1.0000   1.0000   1.0000
     0.0000   0.0000   0.0000   0.0000

          k = 0.3333 0.5774 0.0000 (  8148 PWs)   bands (ev):

    -5.7845  -5.6857  -5.6857  -5.5931  -3.6366  -3.6366   6.2242   6.8497
     6.8497   7.6033  17.8748  17.8749

     occupation numbers 
     1.0000   1.0000   1.0000   1.0000   1.0000   1.0000   1.0000   0.6895
     0.6895   0.0000   0.0000   0.0000

          k = 0.3333 0.5774 0.1223 (  8205 PWs)   bands (ev):

    -5.7381  -5.6840  -5.6840  -5.6425  -3.6403  -3.6403   6.5343   6.8760
     6.8760   7.2182  17.0396  17.0396

     occupation numbers 
     1.0000   1.0000   1.0000   1.0000   1.0000   1.0000   1.0000   0.4053
     0.4052   0.0000   0.0000   0.0000

     the Fermi energy is     6.8764 ev

!    total energy              =     -48.26579802 Ry
     estimated scf accuracy    <       0.00000027 Ry
     smearing contrib. (-TS)   =      -0.00004221 Ry
     internal energy E=F+TS    =     -48.26575581 Ry

     The total energy is F=E-TS. E is the sum of the following terms:
     one-electron contribution =     -10.72009074 Ry
     hartree contribution      =      13.43356359 Ry
     xc contribution           =     -17.22785885 Ry
     ewald contribution        =     -33.75136981 Ry

     convergence has been achieved in   5 iterations


     -----------------------------------------------
     Non-local corr. energy    =       0.17990534 Ry
     -----------------------------------------------


     Forces acting on atoms (cartesian axes, Ry/au):

     atom    1 type  1   force =    -0.00000000   -0.00000000    0.00000000
     atom    2 type  1   force =     0.00000000    0.00000000    0.00000000
     atom    3 type  1   force =     0.00000000   -0.00000000    0.00000000
     atom    4 type  1   force =     0.00000000    0.00000000    0.00000000
     The non-local contrib.  to forces
     atom    1 type  1   force =     0.00000000    0.00000000    0.00000000
     atom    2 type  1   force =     0.00000000   -0.00000000    0.00000000
     atom    3 type  1   force =     0.00000000    0.00000000    0.00000000
     atom    4 type  1   force =     0.00000000   -0.00000000    0.00000000
     The ionic contribution  to forces
     atom    1 type  1   force =     0.00000851   -0.00000491   -0.00000000
     atom    2 type  1   force =    -0.00000851    0.00000491    0.00000000
     atom    3 type  1   force =    -0.00000853    0.00000492   -0.00000000
     atom    4 type  1   force =     0.00000853   -0.00000492    0.00000000
     The local contribution  to forces
     atom    1 type  1   force =     0.00000000    0.00000000    0.00000000
     atom    2 type  1   force =     0.00000000   -0.00000000    0.00000000
     atom    3 type  1   force =    -0.00000679    0.00000392    0.00000000
     atom    4 type  1   force =     0.00000679   -0.00000392    0.00000000
     The core correction contribution to forces
     atom    1 type  1   force =    -0.00000000    0.00000000    0.00000000
     atom    2 type  1   force =     0.00000000   -0.00000000   -0.00000000
     atom    3 type  1   force =     0.00000053   -0.00000031    0.00000000
     atom    4 type  1   force =    -0.00000053    0.00000031    0.00000000
     The Hubbard contrib.    to forces
     atom    1 type  1   force =     0.00000000    0.00000000    0.00000000
     atom    2 type  1   force =     0.00000000    0.00000000    0.00000000
     atom    3 type  1   force =     0.00000000    0.00000000    0.00000000
     atom    4 type  1   force =     0.00000000    0.00000000    0.00000000
     The SCF correction term to forces
     atom    1 type  1   force =     0.00000000   -0.00000000    0.00000000
     atom    2 type  1   force =    -0.00000000    0.00000000   -0.00000000
     atom    3 type  1   force =    -0.00000000    0.00000000   -0.00000000
     atom    4 type  1   force =     0.00000000   -0.00000000   -0.00000000

     Total force =     0.000000     Total SCF correction =     0.000000


     Computing stress (Cartesian axis) and pressure



     -----------------------------------------------
     Non-local corr. energy    =       0.17990534 Ry
     -----------------------------------------------

          total   stress  (Ry/bohr**3)                   (kbar)     P=        0.39
   0.00002505   0.00000000   0.00000000            3.68        0.00        0.00
   0.00000000   0.00002505   0.00000000            0.00        3.68        0.00
   0.00000000   0.00000000  -0.00004215            0.00        0.00       -6.20

     kinetic stress (kbar)  13285.79      0.00      0.00
                                0.00  13285.79      0.00
                                0.00      0.00  14622.98

     local   stress (kbar) -19630.47      0.01      0.00
                                0.01 -19630.46      0.00
                                0.00      0.00  23600.88

     nonloc. stress (kbar)  -1350.40      0.00      0.00
                                0.00  -1350.40      0.00
                                0.00      0.00  -1127.55

     hartree stress (kbar)   7232.14      0.00      0.00
                                0.00   7232.14      0.00
                                0.00      0.00  -6215.25

     exc-cor stress (kbar)  -1056.96     -0.00     -0.00
                               -0.00  -1056.96     -0.00
                               -0.00     -0.00  -1226.50

     corecor stress (kbar)  -2014.73      0.00     -0.00
                                0.00  -2014.73      0.00
                               -0.00      0.00  -1959.39

     ewald   stress (kbar)   3528.29     -0.02     -0.00
                               -0.02   3528.26     -0.00
                               -0.00     -0.00 -27781.97

     hubbard stress (kbar)      0.00      0.00      0.00
                                0.00      0.00      0.00
                                0.00      0.00      0.00

     DFT-D   stress (kbar)      0.00      0.00      0.00
                                0.00      0.00      0.00
                                0.00      0.00      0.00

     XDM     stress (kbar)      0.00      0.00      0.00
                                0.00      0.00      0.00
                                0.00      0.00      0.00

     dft-nl  stress (kbar)     10.03      0.00      0.00
                                0.00     10.03      0.00
                                0.00      0.00     80.61

     TS-vdW  stress (kbar)      0.00      0.00      0.00
                                0.00      0.00      0.00
                                0.00      0.00      0.00

     MDB     stress (kbar)      0.00      0.00      0.00
                                0.00      0.00      0.00
                                0.00      0.00      0.00

     3D-RISM stress (kbar)      0.00      0.00      0.00
                                0.00      0.00      0.00
                                0.00      0.00      0.00


     BFGS Geometry Optimization
     Energy error            =      0.0E+00 Ry
     Gradient error          =      1.6E-22 Ry/Bohr
     Cell gradient error     =      6.2E+00 kbar

     number of scf cycles    =   1
     number of bfgs steps    =   0

     enthalpy           new  =     -48.2657980206 Ry

     new trust radius        =       0.0032617463 bohr
     new conv_thr            =       0.0000010000 Ry

     new unit-cell volume =    239.60806 a.u.^3 (    35.50625 Ang^3 )
     density =      2.24690 g/cm^3

CELL_PARAMETERS (alat=  4.66447000)
   1.000626135   0.000000000   0.000000000
  -0.500313068   0.866567653   0.000000000
   0.000000000   0.000000000   2.722827960

ATOMIC_POSITIONS (crystal)
C             0.0000000000        0.0000000000        0.0000000000    0   0   0
C             0.0000000000        0.0000000000        0.5000000000
C             0.6666670000        0.3333330000        0.0000000000    0   0   0
C             0.3333330000        0.6666670000        0.5000000000



     Writing config-only to output data dir ./tmp/CBULK_AB_PBE_vdW.save/
     NEW-OLD atomic charge density approx. for the potential


     -----------------------------------------------
     Non-local corr. energy    =       0.17990042 Ry
     -----------------------------------------------

     extrapolated charge   16.00316, renormalised to   16.00000

     total cpu time spent up to now is       22.1 secs

     Self-consistent Calculation

     iteration #  1     ecut=   160.00 Ry     beta= 0.70
     Davidson diagonalization with overlap

---- Real-time Memory Report at c_bands before calling an iterative solver
             0 MiB given to the printing process from OS
             0 MiB allocation reported by mallinfo(arena+hblkhd)
             0 MiB available memory on the node where the printing process lives
------------------
     ethr =  1.00E-06,  avg # of iterations =  2.0

     Threshold (ethr) on eigenvalues was too large:
     Diagonalizing with lowered threshold

     Davidson diagonalization with overlap

---- Real-time Memory Report at c_bands before calling an iterative solver
             0 MiB given to the printing process from OS
             0 MiB allocation reported by mallinfo(arena+hblkhd)
             0 MiB available memory on the node where the printing process lives
------------------
     ethr =  1.57E-08,  avg # of iterations =  1.4


     -----------------------------------------------
     Non-local corr. energy    =       0.17981364 Ry
     -----------------------------------------------


     total cpu time spent up to now is       24.7 secs

     total energy              =     -48.26580552 Ry
     estimated scf accuracy    <       0.00000270 Ry

     iteration #  2     ecut=   160.00 Ry     beta= 0.70
     Davidson diagonalization with overlap

---- Real-time Memory Report at c_bands before calling an iterative solver
             0 MiB given to the printing process from OS
             0 MiB allocation reported by mallinfo(arena+hblkhd)
             0 MiB available memory on the node where the printing process lives
------------------
     ethr =  1.69E-08,  avg # of iterations =  2.0


     -----------------------------------------------
     Non-local corr. energy    =       0.17986296 Ry
     -----------------------------------------------


     total cpu time spent up to now is       26.2 secs

     End of self-consistent calculation

          k = 0.0000 0.0000 0.0000 (  8235 PWs)   bands (ev):

   -12.7265 -12.4194  -1.6685   0.3577   3.8259   3.8260   3.8445   3.8446
    10.8653  15.2614  15.2615  15.3154

     occupation numbers 
     1.0000   1.0000   1.0000   1.0000   1.0000   1.0000   1.0000   1.0000
     0.0000   0.0000   0.0000   0.0000

          k = 0.0000 0.0000 0.1224 (  8193 PWs)   bands (ev):

   -12.6536 -12.5003  -1.2320  -0.2363   3.8306   3.8306   3.8399   3.8399
    12.1598  15.2745  15.2746  15.3016

     occupation numbers 
     1.0000   1.0000   1.0000   1.0000   1.0000   1.0000   1.0000   1.0000
     0.0000   0.0000   0.0000   0.0000

          k = 0.0000 0.0962 0.0000 (  8223 PWs)   bands (ev):

   -12.5617 -12.2577  -1.4672   0.5455   3.1713   3.2053   3.4851   3.5137
    11.0654  15.3107  15.3960  15.9520

     occupation numbers 
     1.0000   1.0000   1.0000   1.0000   1.0000   1.0000   1.0000   1.0000
     0.0000   0.0000   0.0000   0.0000

          k = 0.0000 0.0962 0.1224 (  8210 PWs)   bands (ev):

   -12.4895 -12.3377  -1.0334  -0.0440   3.1798   3.1968   3.4922   3.5065
    12.3497  15.1688  15.3753  15.4253

     occupation numbers 
     1.0000   1.0000   1.0000   1.0000   1.0000   1.0000   1.0000   1.0000
     0.0000   0.0000   0.0000   0.0000

          k = 0.0000 0.1923 0.0000 (  8210 PWs)   bands (ev):

   -12.0691 -11.7744  -0.8678   1.1024   1.5260   1.5912   2.6911   2.7320
    11.6670  15.2014  15.3853  15.9916

     occupation numbers 
     1.0000   1.0000   1.0000   1.0000   1.0000   1.0000   1.0000   1.0000
     0.0000   0.0000   0.0000   0.0000

          k = 0.0000 0.1923 0.1224 (  8221 PWs)   bands (ev):

   -11.9989 -11.8517  -0.4421   0.5269   1.5423   1.5748   2.7012   2.7217
    12.9162  15.1750  15.3325  15.7913

     occupation numbers 
     1.0000   1.0000   1.0000   1.0000   1.0000   1.0000   1.0000   1.0000
     0.0000   0.0000   0.0000   0.0000

          k = 0.0000 0.2885 0.0000 (  8204 PWs)   bands (ev):

   -11.2544 -10.9749  -0.5814  -0.4806   0.1145   1.8107   1.8594   2.0038
    12.6650  13.7772  14.4298  14.8608

     occupation numbers 
     1.0000   1.0000   1.0000   1.0000   1.0000   1.0000   1.0000   1.0000
     0.0000   0.0000   0.0000   0.0000

          k = 0.0000 0.2885 0.1224 (  8193 PWs)   bands (ev):

   -11.1877 -11.0481  -0.5567  -0.5063   0.5253   1.4558   1.8228   1.8471
    13.6630  14.1035  14.2201  14.9183

     occupation numbers 
     1.0000   1.0000   1.0000   1.0000   1.0000   1.0000   1.0000   1.0000
     0.0000   0.0000   0.0000   0.0000

          k = 0.0000 0.3847 0.0000 (  8172 PWs)   bands (ev):

   -10.1301  -9.8714  -2.7937  -2.6577   1.0769   1.1299   1.4407   3.1816
    11.3457  12.2728  14.0150  14.5040

     occupation numbers 
     1.0000   1.0000   1.0000   1.0000   1.0000   1.0000   1.0000   1.0000
     0.0000   0.0000   0.0000   0.0000

          k = 0.0000 0.3847 0.1224 (  8178 PWs)   bands (ev):

   -10.0681  -9.9389  -2.7605  -2.6925   1.0901   1.1166   1.8247   2.6848
    11.5242  11.9940  14.5453  14.6710

     occupation numbers 
     1.0000   1.0000   1.0000   1.0000   1.0000   1.0000   1.0000   1.0000
     0.0000   0.0000   0.0000   0.0000

          k = 0.0000 0.4808 0.0000 (  8184 PWs)   bands (ev):

    -8.7265  -8.4965  -4.8998  -4.7342   0.6036   0.6590   2.9917   4.3912
     9.2057  10.2275  14.2092  14.5943

     occupation numbers 
     1.0000   1.0000   1.0000   1.0000   1.0000   1.0000   1.0000   1.0000
     0.0000   0.0000   0.0000   0.0000

          k = 0.0000 0.4808 0.1224 (  8170 PWs)   bands (ev):

    -8.6711  -8.5561  -4.8597  -4.7770   0.6174   0.6450   3.3201   4.0197
     9.3735   9.8910  14.3056  14.4987

     occupation numbers 
     1.0000   1.0000   1.0000   1.0000   1.0000   1.0000   1.0000   1.0000
     0.0000   0.0000   0.0000   0.0000

          k = 0.0000-0.5770 0.0000 (  8198 PWs)   bands (ev):

    -7.4234  -7.3093  -6.3474  -6.2609   0.4412   0.4972   4.0936   4.7969
     8.3628   9.0599  14.1185  14.5265

     occupation numbers 
     1.0000   1.0000   1.0000   1.0000   1.0000   1.0000   1.0000   1.0000
     0.0000   0.0000   0.0000   0.0000

          k = 0.0000-0.5770 0.1224 (  8186 PWs)   bands (ev):

    -7.3911  -7.3335  -6.3335  -6.2897   0.4551   0.4831   4.3139   4.6793
     8.3721   8.7337  14.2166  14.4212

     occupation numbers 
     1.0000   1.0000   1.0000   1.0000   1.0000   1.0000   1.0000   1.0000
     0.0000   0.0000   0.0000   0.0000

          k = 0.0833 0.1442 0.0000 (  8217 PWs)   bands (ev):

   -12.2330 -11.9352  -1.0668   0.9181   2.1416   2.1745   2.8158   2.8399
    11.4672  15.5883  15.7044  16.5176

     occupation numbers 
     1.0000   1.0000   1.0000   1.0000   1.0000   1.0000   1.0000   1.0000
     0.0000   0.0000   0.0000   0.0000

          k = 0.0833 0.1442 0.1224 (  8219 PWs)   bands (ev):

   -12.1621 -12.0134  -0.6383   0.3377   2.1503   2.1667   2.8213   2.8334
    12.7304  15.4179  15.6760  15.7939

     occupation numbers 
     1.0000   1.0000   1.0000   1.0000   1.0000   1.0000   1.0000   1.0000
     0.0000   0.0000   0.0000   0.0000

          k = 0.0833 0.2404 0.0000 (  8204 PWs)   bands (ev):

   -11.5794 -11.2938  -0.2751   0.4209   0.4902   1.6490   1.8126   1.8573
    12.2708  14.7064  15.1671  15.6649

     occupation numbers 
     1.0000   1.0000   1.0000   1.0000   1.0000   1.0000   1.0000   1.0000
     0.0000   0.0000   0.0000   0.0000

          k = 0.0833 0.2404 0.1224 (  8200 PWs)   bands (ev):

   -11.5113 -11.3686   0.1414   0.4381   0.4733   1.0893   1.8235   1.8458
    13.4793  14.8108  15.0145  15.6622

     occupation numbers 
     1.0000   1.0000   1.0000   1.0000   1.0000   1.0000   1.0000   1.0000
     0.0000   0.0000   0.0000   0.0000

          k = 0.0833 0.3366 0.0000 (  8187 PWs)   bands (ev):

   -10.6097 -10.3421  -1.6645  -1.5525   0.8836   0.9211   0.9810   2.6986
    12.4485  13.1628  13.4647  15.3580

     occupation numbers 
     1.0000   1.0000   1.0000   1.0000   1.0000   1.0000   1.0000   1.0000
     0.0000   0.0000   0.0000   0.0000

          k = 0.0833 0.3366 0.1224 (  8201 PWs)   bands (ev):

   -10.5457 -10.4120  -1.6370  -1.5810   0.9358   0.9658   1.2806   2.1758
    12.5900  12.9580  14.6108  15.4227

     occupation numbers 
     1.0000   1.0000   1.0000   1.0000   1.0000   1.0000   1.0000   1.0000
     0.0000   0.0000   0.0000   0.0000

          k = 0.0833 0.4327 0.0000 (  8173 PWs)   bands (ev):

    -9.3429  -9.0993  -3.7965  -3.6483   0.2839   0.3507   2.3455   3.9484
    10.1539  11.0937  14.9224  15.1086

     occupation numbers 
     1.0000   1.0000   1.0000   1.0000   1.0000   1.0000   1.0000   1.0000
     0.0000   0.0000   0.0000   0.0000

          k = 0.0833 0.4327 0.1224 (  8181 PWs)   bands (ev):

    -9.2843  -9.1627  -3.7604  -3.6863   0.3004   0.3338   2.7056   3.5004
    10.3382  10.8132  15.1118  15.2808

     occupation numbers 
     1.0000   1.0000   1.0000   1.0000   1.0000   1.0000   1.0000   1.0000
     0.0000   0.0000   0.0000   0.0000

          k = 0.0833 0.5289 0.0000 (  8176 PWs)   bands (ev):

    -7.8512  -7.6502  -5.7348  -5.5714  -0.0455   0.0241   3.8635   4.8934
     8.5359   9.3373  14.8401  15.2663

     occupation numbers 
     1.0000   1.0000   1.0000   1.0000   1.0000   1.0000   1.0000   1.0000
     0.0000   0.0000   0.0000   0.0000

          k = 0.0833 0.5289 0.1224 (  8168 PWs)   bands (ev):

    -7.8021  -7.7016  -5.6961  -5.6144  -0.0283   0.0065   4.1354   4.6606
     8.6147   9.0298  14.9408  15.1540

     occupation numbers 
     1.0000   1.0000   1.0000   1.0000   1.0000   1.0000   1.0000   1.0000
     0.0000   0.0000   0.0000   0.0000

          k = 0.1666 0.2885 0.0000 (  8195 PWs)   bands (ev):

   -10.7707 -10.5001  -0.9014  -0.8458   0.4635   0.5039   0.6958   2.5341
    12.9808  13.2738  13.4747  16.8288

     occupation numbers 
     1.0000   1.0000   1.0000   1.0000   1.0000   1.0000   1.0000   1.0000
     0.0000   0.0000   0.0000   0.0000

          k = 0.1666 0.2885 0.1224 (  8201 PWs)   bands (ev):

   -10.7060 -10.5709  -0.8871  -0.8593   0.4724   0.4927   1.0969   2.0031
    13.1007  13.3431  14.4187  16.6669

     occupation numbers 
     1.0000   1.0000   1.0000   1.0000   1.0000   1.0000   1.0000   1.0000
     0.0000   0.0000   0.0000   0.0000

          k = 0.1666 0.3847 0.0000 (  8192 PWs)   bands (ev):

    -9.6572  -9.4075  -2.6458  -2.5401  -0.6060  -0.5331   2.0077   3.6976
    10.9707  11.6156  14.6532  16.9205

     occupation numbers 
     1.0000   1.0000   1.0000   1.0000   1.0000   1.0000   1.0000   1.0000
     0.0000   0.0000   0.0000   0.0000

          k = 0.1666 0.3847 0.1224 (  8180 PWs)   bands (ev):

    -9.5973  -9.4725  -2.6196  -2.5667  -0.5887  -0.5522   2.3817   3.2171
    11.1232  11.4469  15.6408  16.9546

     occupation numbers 
     1.0000   1.0000   1.0000   1.0000   1.0000   1.0000   1.0000   1.0000
     0.0000   0.0000   0.0000   0.0000

          k = 0.1666 0.4808 0.0000 (  8176 PWs)   bands (ev):

    -8.2736  -8.0527  -4.5681  -4.4185  -1.1916  -1.0997   3.5535   4.9310
     9.0360   9.8040  16.3444  16.6825

     occupation numbers 
     1.0000   1.0000   1.0000   1.0000   1.0000   1.0000   1.0000   1.0000
     0.0000   0.0000   0.0000   0.0000

          k = 0.1666 0.4808 0.1224 (  8175 PWs)   bands (ev):

    -8.2203  -8.1098  -4.5317  -4.4570  -1.1693  -1.1234   3.8754   4.5634
     9.1860   9.5771  16.7451  16.8403

     occupation numbers 
     1.0000   1.0000   1.0000   1.0000   1.0000   1.0000   1.0000   1.0000
     0.0000   0.0000   0.0000   0.0000

          k = 0.1666 0.5770 0.0000 (  8176 PWs)   bands (ev):

    -7.0009  -6.8915  -5.9475  -5.8716  -1.3788  -1.2824   4.6915   5.3802
     8.2949   8.6104  16.5554  17.1221

     occupation numbers 
     1.0000   1.0000   1.0000   1.0000   1.0000   1.0000   1.0000   1.0000
     0.0000   0.0000   0.0000   0.0000

          k = 0.1666 0.5770 0.1224 (  8161 PWs)   bands (ev):

    -6.9700  -6.9148  -5.9356  -5.8970  -1.3553  -1.3071   4.9118   5.2714
     8.2444   8.4244  16.6529  16.9216

     occupation numbers 
     1.0000   1.0000   1.0000   1.0000   1.0000   1.0000   1.0000   1.0000
     0.0000   0.0000   0.0000   0.0000

          k = 0.2498 0.4327 0.0000 (  8195 PWs)   bands (ev):

    -8.4225  -8.1972  -3.6686  -3.5912  -2.0688  -2.0115   3.4318   4.9185
     9.3690   9.9891  16.1744  18.6056

     occupation numbers 
     1.0000   1.0000   1.0000   1.0000   1.0000   1.0000   1.0000   1.0000
     0.0000   0.0000   0.0000   0.0000

          k = 0.2498 0.4327 0.1224 (  8184 PWs)   bands (ev):

    -8.3682  -8.2556  -3.6485  -3.6097  -2.0570  -2.0282   3.7690   4.5071
     9.5246   9.8321  16.7238  17.6666

     occupation numbers 
     1.0000   1.0000   1.0000   1.0000   1.0000   1.0000   1.0000   1.0000
     0.0000   0.0000   0.0000   0.0000

          k = 0.2498 0.5289 0.0000 (  8187 PWs)   bands (ev):

    -6.9883  -6.8047  -5.1022  -4.9788  -2.7952  -2.6989   4.9774   6.0138
     7.9361   8.4938  17.8853  18.5336

     occupation numbers 
     1.0000   1.0000   1.0000   1.0000   1.0000   1.0000   1.0000   1.0000
     0.0000   0.0000   0.0000   0.0000

          k = 0.2498 0.5289 0.1224 (  8175 PWs)   bands (ev):

    -6.9433  -6.8515  -5.0723  -5.0105  -2.7729  -2.7247   5.2465   5.7751
     8.0327   8.3128  17.2229  17.4185

     occupation numbers 
     1.0000   1.0000   1.0000   1.0000   1.0000   1.0000   1.0000   1.0000
     0.0000   0.0000   0.0000   0.0000

          k = 0.3331 0.5770 0.0000 (  8148 PWs)   bands (ev):

    -5.7859  -5.6860  -5.6860  -5.5926  -3.6288  -3.6288   6.2153   6.8449
     6.8449   7.6032  17.8755  17.8755

     occupation numbers 
     1.0000   1.0000   1.0000   1.0000   1.0000   1.0000   1.0000   0.6919
     0.6918   0.0000   0.0000   0.0000

          k = 0.3331 0.5770 0.1224 (  8205 PWs)   bands (ev):

    -5.7391  -5.6843  -5.6843  -5.6425  -3.6326  -3.6326   6.5273   6.8714
     6.8714   7.2156  17.0346  17.0346

     occupation numbers 
     1.0000   1.0000   1.0000   1.0000   1.0000   1.0000   1.0000   0.4041
     0.4041   0.0000   0.0000   0.0000

     the Fermi energy is     6.8718 ev

!    total energy              =     -48.26580675 Ry
     estimated scf accuracy    <       0.00000052 Ry
     smearing contrib. (-TS)   =      -0.00004213 Ry
     internal energy E=F+TS    =     -48.26576462 Ry

     The total energy is F=E-TS. E is the sum of the following terms:
     one-electron contribution =     -10.62149596 Ry
     hartree contribution      =      13.38470789 Ry
     xc contribution           =     -17.22282100 Ry
     ewald contribution        =     -33.80615554 Ry

     convergence has been achieved in   2 iterations


     -----------------------------------------------
     Non-local corr. energy    =       0.17986296 Ry
     -----------------------------------------------


     Forces acting on atoms (cartesian axes, Ry/au):

     atom    1 type  1   force =     0.00000000   -0.00000000    0.00000000
     atom    2 type  1   force =     0.00000000    0.00000000    0.00000000
     atom    3 type  1   force =    -0.00000000    0.00000000    0.00000000
     atom    4 type  1   force =     0.00000000    0.00000000    0.00000000
     The non-local contrib.  to forces
     atom    1 type  1   force =    -0.00000000   -0.00000000    0.00000000
     atom    2 type  1   force =     0.00000000    0.00000000    0.00000000
     atom    3 type  1   force =     0.00000000    0.00000000    0.00000000
     atom    4 type  1   force =    -0.00000000   -0.00000000    0.00000000
     The ionic contribution  to forces
     atom    1 type  1   force =     0.00000850   -0.00000490   -0.00000000
     atom    2 type  1   force =    -0.00000850    0.00000490    0.00000000
     atom    3 type  1   force =    -0.00000852    0.00000492   -0.00000000
     atom    4 type  1   force =     0.00000852   -0.00000492    0.00000000
     The local contribution  to forces
     atom    1 type  1   force =     0.00000000    0.00000000    0.00000000
     atom    2 type  1   force =    -0.00000000   -0.00000000    0.00000000
     atom    3 type  1   force =    -0.00000680    0.00000393    0.00000000
     atom    4 type  1   force =     0.00000680   -0.00000393    0.00000000
     The core correction contribution to forces
     atom    1 type  1   force =    -0.00000000    0.00000000    0.00000000
     atom    2 type  1   force =     0.00000000   -0.00000000    0.00000000
     atom    3 type  1   force =     0.00000053   -0.00000031    0.00000000
     atom    4 type  1   force =    -0.00000053    0.00000031    0.00000000
     The Hubbard contrib.    to forces
     atom    1 type  1   force =     0.00000000    0.00000000    0.00000000
     atom    2 type  1   force =     0.00000000    0.00000000    0.00000000
     atom    3 type  1   force =     0.00000000    0.00000000    0.00000000
     atom    4 type  1   force =     0.00000000    0.00000000    0.00000000
     The SCF correction term to forces
     atom    1 type  1   force =    -0.00000000    0.00000000    0.00000000
     atom    2 type  1   force =     0.00000000   -0.00000000   -0.00000000
     atom    3 type  1   force =     0.00000000   -0.00000000    0.00000000
     atom    4 type  1   force =    -0.00000000    0.00000000   -0.00000000

     Total force =     0.000000     Total SCF correction =     0.000000


     Computing stress (Cartesian axis) and pressure



     -----------------------------------------------
     Non-local corr. energy    =       0.17986296 Ry
     -----------------------------------------------

          total   stress  (Ry/bohr**3)                   (kbar)     P=       -4.16
  -0.00002912  -0.00000000   0.00000000           -4.28       -0.00        0.00
  -0.00000000  -0.00002912  -0.00000000           -0.00       -4.28       -0.00
   0.00000000  -0.00000000  -0.00002667            0.00       -0.00       -3.92

     kinetic stress (kbar)  13273.55      0.00     -0.00
                                0.00  13273.55      0.00
                               -0.00      0.00  14616.20

     local   stress (kbar) -19548.65      0.01      0.00
                                0.01 -19548.64      0.00
                                0.00      0.00  23503.83

     nonloc. stress (kbar)  -1347.58     -0.00     -0.00
                               -0.00  -1347.58      0.00
                               -0.00      0.00  -1126.10

     hartree stress (kbar)   7199.45      0.00     -0.00
                                0.00   7199.45     -0.00
                               -0.00     -0.00  -6181.48

     exc-cor stress (kbar)  -1055.95     -0.00     -0.00
                               -0.00  -1055.95      0.00
                               -0.00      0.00  -1225.25

     corecor stress (kbar)  -2014.03      0.00      0.00
                                0.00  -2014.03      0.00
                                0.00      0.00  -1958.88

     ewald   stress (kbar)   3478.89     -0.02     -0.00
                               -0.02   3478.86     -0.00
                               -0.00     -0.00 -27712.71

     hubbard stress (kbar)      0.00      0.00      0.00
                                0.00      0.00      0.00
                                0.00      0.00      0.00

     DFT-D   stress (kbar)      0.00      0.00      0.00
                                0.00      0.00      0.00
                                0.00      0.00      0.00

     XDM     stress (kbar)      0.00      0.00      0.00
                                0.00      0.00      0.00
                                0.00      0.00      0.00

     dft-nl  stress (kbar)     10.05      0.00     -0.00
                                0.00     10.05      0.00
                               -0.00      0.00     80.46

     TS-vdW  stress (kbar)      0.00      0.00      0.00
                                0.00      0.00      0.00
                                0.00      0.00      0.00

     MDB     stress (kbar)      0.00      0.00      0.00
                                0.00      0.00      0.00
                                0.00      0.00      0.00

     3D-RISM stress (kbar)      0.00      0.00      0.00
                                0.00      0.00      0.00
                                0.00      0.00      0.00

     Energy error            =      8.7E-06 Ry
     Gradient error          =      2.1E-22 Ry/Bohr
     Cell gradient error     =      4.3E+00 kbar

     number of scf cycles    =   2
     number of bfgs steps    =   1

     enthalpy           old  =     -48.2657980206 Ry
     enthalpy           new  =     -48.2658067456 Ry

     CASE: enthalpy          _new < enthalpy          _old

     new trust radius        =       0.0039381588 bohr
     new conv_thr            =       0.0000000100 Ry

     new unit-cell volume =    239.17988 a.u.^3 (    35.44280 Ang^3 )
     density =      2.25092 g/cm^3

CELL_PARAMETERS (alat=  4.66447000)
   1.000368135  -0.000000000   0.000000000
  -0.500184067   0.866344218  -0.000000000
   0.000000000  -0.000000000   2.719364321

ATOMIC_POSITIONS (crystal)
C             0.0000000000        0.0000000000        0.0000000000    0   0   0
C             0.0000000000        0.0000000000        0.5000000000
C             0.6666670000        0.3333330000        0.0000000000    0   0   0
C             0.3333330000        0.6666670000        0.5000000000



     Writing config-only to output data dir ./tmp/CBULK_AB_PBE_vdW.save/
     NEW-OLD atomic charge density approx. for the potential


     -----------------------------------------------
     Non-local corr. energy    =       0.17952221 Ry
     -----------------------------------------------

     extrapolated charge   15.97136, renormalised to   16.00000

     total cpu time spent up to now is       28.8 secs

     Self-consistent Calculation

     iteration #  1     ecut=   160.00 Ry     beta= 0.70
     Davidson diagonalization with overlap

---- Real-time Memory Report at c_bands before calling an iterative solver
             0 MiB given to the printing process from OS
             0 MiB allocation reported by mallinfo(arena+hblkhd)
             0 MiB available memory on the node where the printing process lives
------------------
     ethr =  1.00E-06,  avg # of iterations =  2.2

     Threshold (ethr) on eigenvalues was too large:
     Diagonalizing with lowered threshold

     Davidson diagonalization with overlap

---- Real-time Memory Report at c_bands before calling an iterative solver
             0 MiB given to the printing process from OS
             0 MiB allocation reported by mallinfo(arena+hblkhd)
             0 MiB available memory on the node where the printing process lives
------------------
     ethr =  9.77E-08,  avg # of iterations =  1.0


     -----------------------------------------------
     Non-local corr. energy    =       0.17996047 Ry
     -----------------------------------------------


     total cpu time spent up to now is       31.2 secs

     total energy              =     -48.26578354 Ry
     estimated scf accuracy    <       0.00001597 Ry

     iteration #  2     ecut=   160.00 Ry     beta= 0.70
     Davidson diagonalization with overlap

---- Real-time Memory Report at c_bands before calling an iterative solver
             0 MiB given to the printing process from OS
             0 MiB allocation reported by mallinfo(arena+hblkhd)
             0 MiB available memory on the node where the printing process lives
------------------
     ethr =  9.98E-08,  avg # of iterations =  3.1


     -----------------------------------------------
     Non-local corr. energy    =       0.17984008 Ry
     -----------------------------------------------


     total cpu time spent up to now is       32.7 secs

     total energy              =     -48.26582134 Ry
     estimated scf accuracy    <       0.00002009 Ry

     iteration #  3     ecut=   160.00 Ry     beta= 0.70
     Davidson diagonalization with overlap

---- Real-time Memory Report at c_bands before calling an iterative solver
             0 MiB given to the printing process from OS
             0 MiB allocation reported by mallinfo(arena+hblkhd)
             0 MiB available memory on the node where the printing process lives
------------------
     ethr =  9.98E-08,  avg # of iterations =  1.0


     -----------------------------------------------
     Non-local corr. energy    =       0.17967400 Ry
     -----------------------------------------------


     total cpu time spent up to now is       33.9 secs

     total energy              =     -48.26581792 Ry
     estimated scf accuracy    <       0.00000565 Ry

     iteration #  4     ecut=   160.00 Ry     beta= 0.70
     Davidson diagonalization with overlap

---- Real-time Memory Report at c_bands before calling an iterative solver
             0 MiB given to the printing process from OS
             0 MiB allocation reported by mallinfo(arena+hblkhd)
             0 MiB available memory on the node where the printing process lives
------------------
     ethr =  3.53E-08,  avg # of iterations =  2.0


     -----------------------------------------------
     Non-local corr. energy    =       0.17970493 Ry
     -----------------------------------------------


     total cpu time spent up to now is       35.3 secs

     total energy              =     -48.26581939 Ry
     estimated scf accuracy    <       0.00000067 Ry

     iteration #  5     ecut=   160.00 Ry     beta= 0.70
     Davidson diagonalization with overlap

---- Real-time Memory Report at c_bands before calling an iterative solver
             0 MiB given to the printing process from OS
             0 MiB allocation reported by mallinfo(arena+hblkhd)
             0 MiB available memory on the node where the printing process lives
------------------
     ethr =  4.18E-09,  avg # of iterations =  1.3


     -----------------------------------------------
     Non-local corr. energy    =       0.17970239 Ry
     -----------------------------------------------


     total cpu time spent up to now is       36.5 secs

     total energy              =     -48.26581945 Ry
     estimated scf accuracy    <       0.00000006 Ry

     iteration #  6     ecut=   160.00 Ry     beta= 0.70
     Davidson diagonalization with overlap

---- Real-time Memory Report at c_bands before calling an iterative solver
             0 MiB given to the printing process from OS
             0 MiB allocation reported by mallinfo(arena+hblkhd)
             0 MiB available memory on the node where the printing process lives
------------------
     ethr =  3.89E-10,  avg # of iterations =  1.0


     -----------------------------------------------
     Non-local corr. energy    =       0.17971602 Ry
     -----------------------------------------------


     total cpu time spent up to now is       37.6 secs

     total energy              =     -48.26581939 Ry
     estimated scf accuracy    <       0.00000009 Ry

     iteration #  7     ecut=   160.00 Ry     beta= 0.70
     Davidson diagonalization with overlap

---- Real-time Memory Report at c_bands before calling an iterative solver
             0 MiB given to the printing process from OS
             0 MiB allocation reported by mallinfo(arena+hblkhd)
             0 MiB available memory on the node where the printing process lives
------------------
     ethr =  3.89E-10,  avg # of iterations =  2.0


     -----------------------------------------------
     Non-local corr. energy    =       0.17971367 Ry
     -----------------------------------------------


     total cpu time spent up to now is       39.0 secs

     End of self-consistent calculation

          k = 0.0000 0.0000 0.0000 (  8235 PWs)   bands (ev):

[...]
    11.9659  15.3736  15.5771  16.1532

     occupation numbers 
     1.0000   1.0000   1.0000   1.0000   1.0000   1.0000   1.0000   1.0000
     0.0000   0.0000   0.0000   0.0000

          k = 0.0000 0.1924 0.1242 (  8092 PWs)   bands (ev):

   -11.8434 -11.6794  -0.3097   0.7278   1.7141   1.7511   2.8739   2.8974
    13.2702  15.3665  15.5191  16.1688

     occupation numbers 
     1.0000   1.0000   1.0000   1.0000   1.0000   1.0000   1.0000   1.0000
     0.0000   0.0000   0.0000   0.0000

          k = 0.0000 0.2886 0.0000 (  8094 PWs)   bands (ev):

   -11.1052 -10.7934  -0.4155  -0.3015   0.2200   1.9804   2.0362   2.2465
    12.9576  13.9269  14.6376  15.0286

     occupation numbers 
     1.0000   1.0000   1.0000   1.0000   1.0000   1.0000   1.0000   1.0000
     0.0000   0.0000   0.0000   0.0000

          k = 0.0000 0.2886 0.1242 (  8066 PWs)   bands (ev):

   -11.0312 -10.8755  -0.3876  -0.3307   0.6591   1.6560   1.9943   2.0221
    13.9037  14.3592  14.4100  15.0983

     occupation numbers 
     1.0000   1.0000   1.0000   1.0000   1.0000   1.0000   1.0000   1.0000
     0.0000   0.0000   0.0000   0.0000

          k = 0.0000 0.3848 0.0000 (  8072 PWs)   bands (ev):

    -9.9790  -9.6901  -2.6315  -2.4782   1.2455   1.3063   1.5500   3.4187
    11.4867  12.4880  14.2853  14.6765

     occupation numbers 
     1.0000   1.0000   1.0000   1.0000   1.0000   1.0000   1.0000   1.0000
     0.0000   0.0000   0.0000   0.0000

          k = 0.0000 0.3848 0.1242 (  8056 PWs)   bands (ev):

    -9.9100  -9.7658  -2.5942  -2.5175   1.2606   1.2910   1.9609   2.8833
    11.6792  12.1863  14.7220  14.8714

     occupation numbers 
     1.0000   1.0000   1.0000   1.0000   1.0000   1.0000   1.0000   1.0000
     0.0000   0.0000   0.0000   0.0000

          k = 0.0000 0.4810 0.0000 (  8058 PWs)   bands (ev):

    -8.5728  -8.3154  -4.7410  -4.5549   0.7717   0.8350   3.1084   4.6106
     9.3522  10.4464  14.3704  14.7979

     occupation numbers 
     1.0000   1.0000   1.0000   1.0000   1.0000   1.0000   1.0000   1.0000
     0.0000   0.0000   0.0000   0.0000

          k = 0.0000 0.4810 0.1242 (  8053 PWs)   bands (ev):

    -8.5110  -8.3824  -4.6961  -4.6031   0.7874   0.8190   3.4612   4.2126
     9.5272  10.0825  14.4768  14.6912

     occupation numbers 
     1.0000   1.0000   1.0000   1.0000   1.0000   1.0000   1.0000   1.0000
     0.0000   0.0000   0.0000   0.0000

          k =-0.0000-0.5772-0.0000 (  8094 PWs)   bands (ev):

    -7.2624  -7.1347  -6.1838  -6.0875   0.6090   0.6731   4.2228   4.9779
     8.5421   9.2719  14.2788  14.7305

     occupation numbers 
     1.0000   1.0000   1.0000   1.0000   1.0000   1.0000   1.0000   1.0000
     0.0000   0.0000   0.0000   0.0000

          k =-0.0000-0.5772 0.1242 (  8072 PWs)   bands (ev):

    -7.2257  -7.1611  -6.1695  -6.1205   0.6249   0.6569   4.4637   4.8582
     8.5370   8.9185  14.3872  14.6137

     occupation numbers 
     1.0000   1.0000   1.0000   1.0000   1.0000   1.0000   1.0000   1.0000
     0.0000   0.0000   0.0000   0.0000

          k = 0.0833 0.1443 0.0000 (  8091 PWs)   bands (ev):

   -12.0854 -11.7536  -0.9639   1.1638   2.3137   2.3513   2.9885   3.0161
    11.7674  15.7639  15.8909  16.6824

     occupation numbers 
     1.0000   1.0000   1.0000   1.0000   1.0000   1.0000   1.0000   1.0000
     0.0000   0.0000   0.0000   0.0000

          k = 0.0833 0.1443 0.1242 (  8099 PWs)   bands (ev):

   -12.0068 -11.8412  -0.5062   0.5387   2.3236   2.3424   2.9947   3.0086
    13.0874  15.6858  15.8589  16.1642

     occupation numbers 
     1.0000   1.0000   1.0000   1.0000   1.0000   1.0000   1.0000   1.0000
     0.0000   0.0000   0.0000   0.0000

          k = 0.0833 0.2405 0.0000 (  8070 PWs)   bands (ev):

   -11.4307 -11.1123  -0.1705   0.5895   0.6683   1.8929   1.9827   2.0338
    12.5666  14.8624  15.3670  15.8362

     occupation numbers 
     1.0000   1.0000   1.0000   1.0000   1.0000   1.0000   1.0000   1.0000
     0.0000   0.0000   0.0000   0.0000

          k = 0.0833 0.2405 0.1242 (  8095 PWs)   bands (ev):

   -11.3551 -11.1962   0.2745   0.6090   0.6490   1.2899   1.9950   2.0206
    13.8255  14.9755  15.2009  15.8629

     occupation numbers 
     1.0000   1.0000   1.0000   1.0000   1.0000   1.0000   1.0000   1.0000
     0.0000   0.0000   0.0000   0.0000

          k = 0.0833 0.3367 0.0000 (  8079 PWs)   bands (ev):

   -10.4594 -10.1608  -1.4999  -1.3734   0.9911   1.0892   1.1575   2.9388
    12.5946  13.3694  13.7529  15.5261

     occupation numbers 
     1.0000   1.0000   1.0000   1.0000   1.0000   1.0000   1.0000   1.0000
     0.0000   0.0000   0.0000   0.0000

          k = 0.0833 0.3367 0.1242 (  8075 PWs)   bands (ev):

   -10.3883 -10.2392  -1.4689  -1.4057   1.1060   1.1401   1.4157   2.3752
    12.7495  13.1473  14.9350  15.6007

     occupation numbers 
     1.0000   1.0000   1.0000   1.0000   1.0000   1.0000   1.0000   1.0000
     0.0000   0.0000   0.0000   0.0000

          k = 0.0833 0.4329 0.0000 (  8060 PWs)   bands (ev):

    -9.1904  -8.9182  -3.6357  -3.4688   0.4510   0.5271   2.4580   4.1793
    10.2955  11.3073  15.1277  15.3308

     occupation numbers 
     1.0000   1.0000   1.0000   1.0000   1.0000   1.0000   1.0000   1.0000
     0.0000   0.0000   0.0000   0.0000

          k = 0.0833 0.4329 0.1242 (  8055 PWs)   bands (ev):

    -9.1252  -8.9892  -3.5952  -3.5118   0.4697   0.5078   2.8439   3.6969
    10.4923  11.0041  15.2849  15.4763

     occupation numbers 
     1.0000   1.0000   1.0000   1.0000   1.0000   1.0000   1.0000   1.0000
     0.0000   0.0000   0.0000   0.0000

          k = 0.0833 0.5291 0.0000 (  8062 PWs)   bands (ev):

    -7.6951  -7.4698  -5.5765  -5.3931   0.1211   0.2003   3.9870   5.0914
     8.7005   9.5496  15.0012  15.4708

     occupation numbers 
     1.0000   1.0000   1.0000   1.0000   1.0000   1.0000   1.0000   1.0000
     0.0000   0.0000   0.0000   0.0000

          k = 0.0833 0.5291 0.1242 (  8052 PWs)   bands (ev):

    -7.6402  -7.5276  -5.5333  -5.4416   0.1406   0.1803   4.2813   4.8463
     8.7744   9.2169  15.1116  15.3466

     occupation numbers 
     1.0000   1.0000   1.0000   1.0000   1.0000   1.0000   1.0000   1.0000
     0.0000   0.0000   0.0000   0.0000

          k = 0.1666 0.2886 0.0000 (  8053 PWs)   bands (ev):

   -10.6207 -10.3188  -0.7325  -0.6695   0.6326   0.6784   0.8027   2.7752
    13.1324  13.5643  13.6716  16.9997

     occupation numbers 
     1.0000   1.0000   1.0000   1.0000   1.0000   1.0000   1.0000   1.0000
     0.0000   0.0000   0.0000   0.0000

          k = 0.1666 0.2886 0.1242 (  8081 PWs)   bands (ev):

   -10.5488 -10.3980  -0.7162  -0.6847   0.6425   0.6654   1.2316   2.2028
    13.2631  13.5275  14.7566  16.9197

     occupation numbers 
     1.0000   1.0000   1.0000   1.0000   1.0000   1.0000   1.0000   1.0000
     0.0000   0.0000   0.0000   0.0000

          k = 0.1666 0.3848 0.0000 (  8078 PWs)   bands (ev):

    -9.5053  -9.2263  -2.4812  -2.3620  -0.4401  -0.3576   2.1184   3.9330
    11.1161  11.8156  14.9351  17.0858

     occupation numbers 
     1.0000   1.0000   1.0000   1.0000   1.0000   1.0000   1.0000   1.0000
     0.0000   0.0000   0.0000   0.0000

          k = 0.1666 0.3848 0.1242 (  8058 PWs)   bands (ev):

    -9.4386  -9.2993  -2.4516  -2.3920  -0.4207  -0.3793   2.5188   3.4151
    11.2816  11.6326  15.9544  17.1378

     occupation numbers 
     1.0000   1.0000   1.0000   1.0000   1.0000   1.0000   1.0000   1.0000
     0.0000   0.0000   0.0000   0.0000

          k = 0.1666 0.4810 0.0000 (  8058 PWs)   bands (ev):

    -8.1191  -7.8717  -4.4077  -4.2395  -1.0274  -0.9234   3.6712   5.1508
     9.1837  10.0089  16.6007  16.8552

     occupation numbers 
     1.0000   1.0000   1.0000   1.0000   1.0000   1.0000   1.0000   1.0000
     0.0000   0.0000   0.0000   0.0000

          k = 0.1666 0.4810 0.1242 (  8056 PWs)   bands (ev):

    -8.0595  -7.9360  -4.3669  -4.2829  -1.0022  -0.9502   4.0171   4.7565
     9.3424   9.7636  16.9163  17.0557

     occupation numbers 
     1.0000   1.0000   1.0000   1.0000   1.0000   1.0000   1.0000   1.0000
     0.0000   0.0000   0.0000   0.0000

          k = 0.1666 0.5772 0.0000 (  8038 PWs)   bands (ev):

    -6.8394  -6.7168  -5.7827  -5.6981  -1.2150  -1.1059   4.8209   5.5598
     8.4834   8.8032  16.7166  17.3299

     occupation numbers 
     1.0000   1.0000   1.0000   1.0000   1.0000   1.0000   1.0000   1.0000
     0.0000   0.0000   0.0000   0.0000

          k = 0.1666 0.5772 0.1242 (  8051 PWs)   bands (ev):

    -6.8043  -6.7423  -5.7705  -5.7274  -1.1885  -1.1339   5.0619   5.4502
     8.4149   8.6022  16.8206  17.1099

     occupation numbers 
     1.0000   1.0000   1.0000   1.0000   1.0000   1.0000   1.0000   1.0000
     0.0000   0.0000   0.0000   0.0000

          k = 0.2499 0.4329 0.0000 (  8053 PWs)   bands (ev):

    -8.2684  -8.0163  -3.5027  -3.4152  -1.9034  -1.8388   3.5477   5.1457
     9.5127  10.1867  16.4442  18.8384

     occupation numbers 
     1.0000   1.0000   1.0000   1.0000   1.0000   1.0000   1.0000   1.0000
     0.0000   0.0000   0.0000   0.0000

          k = 0.2499 0.4329 0.1242 (  8060 PWs)   bands (ev):

    -8.2078  -8.0818  -3.4798  -3.4360  -1.8904  -1.8580   3.9095   4.7025
     9.6821  10.0159  16.9853  17.8985

     occupation numbers 
     1.0000   1.0000   1.0000   1.0000   1.0000   1.0000   1.0000   1.0000
     0.0000   0.0000   0.0000   0.0000

          k = 0.2499 0.5291 0.0000 (  8051 PWs)   bands (ev):

    -6.8305  -6.6246  -4.9401  -4.8013  -2.6331  -2.5244   5.1018   6.2136
     8.0913   8.6952  18.1294  18.7005

     occupation numbers 
     1.0000   1.0000   1.0000   1.0000   1.0000   1.0000   1.0000   1.0000
     0.0000   0.0000   0.0000   0.0000

          k = 0.2499 0.5291 0.1242 (  8061 PWs)   bands (ev):

    -6.7802  -6.6772  -4.9065  -4.8371  -2.6082  -2.5538   5.3930   5.9621
     8.1926   8.4958  17.4061  17.6082

     occupation numbers 
     1.0000   1.0000   1.0000   1.0000   1.0000   1.0000   1.0000   1.0000
     0.0000   0.0000   0.0000   0.0000

          k = 0.3332 0.5772 0.0000 (  8028 PWs)   bands (ev):

    -5.6276  -5.5162  -5.5162  -5.4102  -3.4622  -3.4622   6.3319   7.0080
     7.0080   7.8369  18.1117  18.1117

     occupation numbers 
     1.0000   1.0000   1.0000   1.0000   1.0000   1.0000   1.0000   0.7240
     0.7240   0.0000   0.0000   0.0000

          k = 0.3332 0.5772 0.1242 (  8067 PWs)   bands (ev):

    -5.5751  -5.5140  -5.5140  -5.4664  -3.4670  -3.4669   6.6686   7.0392
     7.0392   7.4142  17.2115  17.2115

     occupation numbers 
     1.0000   1.0000   1.0000   1.0000   1.0000   1.0000   1.0000   0.3880
     0.3880   0.0000   0.0000   0.0000

     the Fermi energy is     7.0379 ev

!    total energy              =     -48.26586861 Ry
     estimated scf accuracy    <          3.8E-09 Ry
     smearing contrib. (-TS)   =      -0.00004086 Ry
     internal energy E=F+TS    =     -48.26582775 Ry

     The total energy is F=E-TS. E is the sum of the following terms:
     one-electron contribution =      -9.54040668 Ry
     hartree contribution      =      12.94581951 Ry
     xc contribution           =     -17.22905005 Ry
     ewald contribution        =     -34.44219053 Ry

     convergence has been achieved in   7 iterations


     -----------------------------------------------
     Non-local corr. energy    =       0.17846561 Ry
     -----------------------------------------------


     Forces acting on atoms (cartesian axes, Ry/au):

     atom    1 type  1   force =     0.00000000    0.00000000    0.00000000
     atom    2 type  1   force =     0.00000000    0.00000000    0.00000000
     atom    3 type  1   force =     0.00000000    0.00000000    0.00000000
     atom    4 type  1   force =     0.00000000    0.00000000    0.00000000
     The non-local contrib.  to forces
     atom    1 type  1   force =    -0.00000000   -0.00000000   -0.00000000
     atom    2 type  1   force =     0.00000000    0.00000000    0.00000000
     atom    3 type  1   force =     0.00000000   -0.00000000   -0.00000000
     atom    4 type  1   force =    -0.00000000    0.00000000    0.00000000
     The ionic contribution  to forces
     atom    1 type  1   force =     0.00000850   -0.00000491   -0.00000000
     atom    2 type  1   force =    -0.00000850    0.00000491    0.00000000
     atom    3 type  1   force =    -0.00000853    0.00000492   -0.00000000
     atom    4 type  1   force =     0.00000853   -0.00000492    0.00000000
     The local contribution  to forces
     atom    1 type  1   force =    -0.00000000    0.00000000    0.00000000
     atom    2 type  1   force =     0.00000000   -0.00000000    0.00000000
     atom    3 type  1   force =    -0.00000680    0.00000392    0.00000000
     atom    4 type  1   force =     0.00000680   -0.00000392    0.00000000
     The core correction contribution to forces
     atom    1 type  1   force =    -0.00000000    0.00000000   -0.00000000
     atom    2 type  1   force =     0.00000000   -0.00000000   -0.00000000
     atom    3 type  1   force =     0.00000053   -0.00000031    0.00000000
     atom    4 type  1   force =    -0.00000053    0.00000031   -0.00000000
     The Hubbard contrib.    to forces
     atom    1 type  1   force =     0.00000000    0.00000000    0.00000000
     atom    2 type  1   force =     0.00000000    0.00000000    0.00000000
     atom    3 type  1   force =     0.00000000    0.00000000    0.00000000
     atom    4 type  1   force =     0.00000000    0.00000000    0.00000000
     The SCF correction term to forces
     atom    1 type  1   force =    -0.00000000    0.00000000   -0.00000000
     atom    2 type  1   force =     0.00000000   -0.00000000   -0.00000000
     atom    3 type  1   force =     0.00000000   -0.00000000   -0.00000000
     atom    4 type  1   force =    -0.00000000    0.00000000   -0.00000000

     Total force =     0.000000     Total SCF correction =     0.000000


     Computing stress (Cartesian axis) and pressure



     -----------------------------------------------
     Non-local corr. energy    =       0.17846561 Ry
     -----------------------------------------------

          total   stress  (Ry/bohr**3)                   (kbar)     P=       -0.27
  -0.00000329   0.00000000   0.00000000           -0.48        0.00        0.00
   0.00000000  -0.00000329   0.00000000            0.00       -0.48        0.00
   0.00000000   0.00000000   0.00000106            0.00        0.00        0.16

     kinetic stress (kbar)  13479.54      0.00     -0.00
                                0.00  13479.54      0.00
                               -0.00      0.00  14844.86

     local   stress (kbar) -19183.82      0.01     -0.00
                                0.01 -19183.80     -0.00
                               -0.00     -0.00  23208.11

     nonloc. stress (kbar)  -1369.25      0.00      0.00
                                0.00  -1369.25     -0.00
                                0.00     -0.00  -1144.47

     hartree stress (kbar)   7035.72      0.00      0.00
                                0.00   7035.72     -0.00
                                0.00     -0.00  -6003.66

     exc-cor stress (kbar)  -1072.85     -0.00     -0.00
                               -0.00  -1072.85      0.00
                               -0.00      0.00  -1243.60

     corecor stress (kbar)  -2044.53      0.00     -0.00
                                0.00  -2044.53      0.00
                               -0.00      0.00  -1988.53

     ewald   stress (kbar)   3144.44     -0.02     -0.00
                               -0.02   3144.41      0.00
                               -0.00      0.00 -27753.09

     hubbard stress (kbar)      0.00      0.00      0.00
                                0.00      0.00      0.00
                                0.00      0.00      0.00

     DFT-D   stress (kbar)      0.00      0.00      0.00
                                0.00      0.00      0.00
                                0.00      0.00      0.00

     XDM     stress (kbar)      0.00      0.00      0.00
                                0.00      0.00      0.00
                                0.00      0.00      0.00

     dft-nl  stress (kbar)     10.28      0.00      0.00
                                0.00     10.28      0.00
                                0.00      0.00     80.53

     TS-vdW  stress (kbar)      0.00      0.00      0.00
                                0.00      0.00      0.00
                                0.00      0.00      0.00

     MDB     stress (kbar)      0.00      0.00      0.00
                                0.00      0.00      0.00
                                0.00      0.00      0.00

     3D-RISM stress (kbar)      0.00      0.00      0.00
                                0.00      0.00      0.00
                                0.00      0.00      0.00


     Writing all to output data dir ./tmp/CBULK_AB_PBE_vdW.save/

     init_run     :     11.70s CPU     11.82s WALL (       2 calls)
     electrons    :    115.59s CPU    116.61s WALL (      11 calls)
     update_pot   :      4.68s CPU      4.80s WALL (       9 calls)
     forces       :      4.76s CPU      4.90s WALL (      11 calls)
     stress       :     16.97s CPU     17.82s WALL (      11 calls)

     Called by init_run:
     wfcinit      :      1.05s CPU      1.07s WALL (       2 calls)
     wfcinit:atom :      0.02s CPU      0.02s WALL (      76 calls)
     wfcinit:wfcr :      0.96s CPU      0.97s WALL (      76 calls)
     potinit      :      9.88s CPU      9.99s WALL (       2 calls)
     hinit0       :      0.63s CPU      0.64s WALL (       2 calls)

     Called by electrons:
     c_bands      :     94.63s CPU     94.34s WALL (      85 calls)
     sum_band     :     13.74s CPU     14.10s WALL (      85 calls)
     v_of_rho     :     17.34s CPU     18.27s WALL (      91 calls)
     v_h          :      0.07s CPU      0.08s WALL (      91 calls)
     v_xc         :     19.08s CPU     20.18s WALL (     113 calls)
     mix_rho      :      0.23s CPU      0.37s WALL (      85 calls)
     vdW_kernel   :      9.52s CPU      9.60s WALL (       1 calls)

     Called by c_bands:
     init_us_2    :      1.98s CPU      2.02s WALL (    7372 calls)
     init_us_2:cp :      1.97s CPU      1.99s WALL (    7372 calls)
     cegterg      :     90.87s CPU     90.41s WALL (    3230 calls)

     Called by sum_band:
     sum_band:wei :      0.03s CPU      0.04s WALL (      85 calls)
     sum_band:loo :     13.50s CPU     13.86s WALL (      85 calls)
     sum_band:buf :      0.27s CPU      0.28s WALL (    3230 calls)
     sum_band:ini :      0.84s CPU      0.86s WALL (    3230 calls)

     Called by *egterg:
     cdiaghg      :      1.93s CPU      1.97s WALL (    9742 calls)
     cegterg:over :      4.42s CPU      4.52s WALL (    7044 calls)
     cegterg:upda :      3.17s CPU      3.04s WALL (    7044 calls)
     cegterg:last :      4.12s CPU      3.19s WALL (    5706 calls)
     h_psi        :     74.99s CPU     75.11s WALL (   10350 calls)
     g_psi        :      0.41s CPU      0.50s WALL (    7044 calls)

     Called by h_psi:
     h_psi:calbec :      5.26s CPU      5.28s WALL (   10350 calls)
     vloc_psi     :     63.55s CPU     65.21s WALL (   10350 calls)
     add_vuspsi   :      5.63s CPU      3.99s WALL (   10350 calls)

     General routines
     calbec       :      7.20s CPU      7.22s WALL (   12440 calls)
     fft          :      4.17s CPU      4.26s WALL (    7322 calls)
     ffts         :      0.04s CPU      0.04s WALL (      85 calls)
     fftw         :     67.55s CPU     69.04s WALL (  232808 calls)

     Parallel routines

     PWSCF        :   2m33.91s CPU   2m36.24s WALL


   This run was terminated on:  12: 3:21   4Apr2024            

=------------------------------------------------------------------------------=
   JOB DONE.
=------------------------------------------------------------------------------=
