
     Program PWSCF v.6.7MaX starts on 15Feb2024 at 12:46:31 

     This program is part of the open-source Quantum ESPRESSO suite
     for quantum simulation of materials; please cite
         "P. Giannozzi et al., J. Phys.:Condens. Matter 21 395502 (2009);
         "P. Giannozzi et al., J. Phys.:Condens. Matter 29 465901 (2017);
          URL http://www.quantum-espresso.org", 
     in publications or presentations arising from this work. More details at
     http://www.quantum-espresso.org/quote

     Parallel version (MPI), running on     1 processors

     MPI processes distributed on     1 nodes
     Waiting for input...
     Reading input from standard input

     Current dimensions of program PWSCF are:
     Max number of different atomic species (ntypx) = 10
     Max number of k-points (npk) =  40000
     Max angular momentum in pseudopotentials (lmaxx) =  3
     Message from routine read_pp_mesh:
     mesh size missing, using the one in header

     Subspace diagonalization in iterative solution of the eigenvalue problem:
     a serial algorithm will be used


     G-vector sticks info
     --------------------
     sticks:   dense  smooth     PW     G-vecs:    dense   smooth      PW
     Sum         361     361    109                32201    32201    5621



     bravais-lattice index     =            4
     lattice parameter (alat)  =       4.6203  a.u.
     unit-cell volume          =     512.4983 (a.u.)^3
     number of atoms/cell      =            4
     number of atomic types    =            1
     number of electrons       =        16.00
     number of Kohn-Sham states=            8
     kinetic-energy cutoff     =      60.0000  Ry
     charge density cutoff     =     240.0000  Ry
     scf convergence threshold =      1.0E-06
     mixing beta               =       0.7000
     number of iterations used =            8  plain     mixing
     energy convergence thresh.=      1.0E-04
     force convergence thresh. =      1.0E-03
     press convergence thresh. =      5.0E-01
     Exchange-correlation= PBE
                           (   1   4   3   4   0   0   0)
     nstep                     =           50


     celldm(1)=   4.620300  celldm(2)=   0.000000  celldm(3)=   6.000000
     celldm(4)=   0.000000  celldm(5)=   0.000000  celldm(6)=   0.000000

     crystal axes: (cart. coord. in units of alat)
               a(1) = (   1.000000   0.000000   0.000000 )  
               a(2) = (  -0.500000   0.866025   0.000000 )  
               a(3) = (   0.000000   0.000000   6.000000 )  

     reciprocal axes: (cart. coord. in units 2 pi/alat)
               b(1) = (  1.000000  0.577350 -0.000000 )  
               b(2) = (  0.000000  1.154701  0.000000 )  
               b(3) = (  0.000000 -0.000000  0.166667 )  


     PseudoPot. # 1 for C  read from file:
     ../../../Pseudo/PBE/C.upf
     MD5 check sum: 34a24e64c0a39f27c6c36b90a16ac686
     Pseudo is Norm-conserving + core correction, Zval =  4.0
     Generated using ONCVPSP code by D. R. Hamann
     Using radial grid of 1248 points,  4 beta functions with: 
                l(1) =   0
                l(2) =   0
                l(3) =   1
                l(4) =   1

     atomic species   valence    mass     pseudopotential
        C              4.00    12.01100     C ( 1.00)

     24 Sym. Ops., with inversion, found (18 have fractional translation)


                                    s                        frac. trans.

      isym =  1     identity                                     

 cryst.   s( 1) = (     1          0          0      )
                  (     0          1          0      )
                  (     0          0          1      )

 cart.    s( 1) = (  1.0000000  0.0000000  0.0000000 )
                  (  0.0000000  1.0000000  0.0000000 )
                  (  0.0000000  0.0000000  1.0000000 )


      isym =  2     180 deg rotation - cart. axis [0,0,1]        

 cryst.   s( 2) = (    -1          0          0      )    f =( -0.3333333 )
                  (     0         -1          0      )       (  0.3333333 )
                  (     0          0          1      )       (  0.0000000 )

 cart.    s( 2) = ( -1.0000000  0.0000000  0.0000000 )    f =( -0.5000000 )
                  (  0.0000000 -1.0000000  0.0000000 )       (  0.2886751 )
                  (  0.0000000  0.0000000  1.0000000 )       (  0.0000000 )


      isym =  3     180 deg rotation - cart. axis [0,1,0]        

 cryst.   s( 3) = (    -1          0          0      )    f =(  0.0000000 )
                  (     1          1          0      )       (  0.0000000 )
                  (     0          0         -1      )       ( -0.2500000 )

 cart.    s( 3) = ( -1.0000000  0.0000000  0.0000000 )    f =(  0.0000000 )
                  (  0.0000000  1.0000000  0.0000000 )       (  0.0000000 )
                  (  0.0000000  0.0000000 -1.0000000 )       ( -1.5000000 )


      isym =  4     180 deg rotation - cart. axis [1,0,0]        

 cryst.   s( 4) = (     1          0          0      )    f =( -0.3333333 )
                  (    -1         -1          0      )       (  0.3333333 )
                  (     0          0         -1      )       ( -0.2500000 )

 cart.    s( 4) = (  1.0000000  0.0000000  0.0000000 )    f =( -0.5000000 )
                  (  0.0000000 -1.0000000  0.0000000 )       (  0.2886751 )
                  (  0.0000000  0.0000000 -1.0000000 )       ( -1.5000000 )


      isym =  5      60 deg rotation - cryst. axis [0,0,1]       

 cryst.   s( 5) = (     1          1          0      )    f =( -0.3333333 )
                  (    -1          0          0      )       (  0.3333333 )
                  (     0          0          1      )       (  0.0000000 )

 cart.    s( 5) = (  0.5000000 -0.8660254  0.0000000 )    f =( -0.5000000 )
                  (  0.8660254  0.5000000  0.0000000 )       (  0.2886751 )
                  (  0.0000000  0.0000000  1.0000000 )       (  0.0000000 )


      isym =  6      60 deg rotation - cryst. axis [0,0,-1]      

 cryst.   s( 6) = (     0         -1          0      )    f =( -0.3333333 )
                  (     1          1          0      )       (  0.3333333 )
                  (     0          0          1      )       (  0.0000000 )

 cart.    s( 6) = (  0.5000000  0.8660254  0.0000000 )    f =( -0.5000000 )
                  ( -0.8660254  0.5000000  0.0000000 )       (  0.2886751 )
                  (  0.0000000  0.0000000  1.0000000 )       (  0.0000000 )


      isym =  7     120 deg rotation - cryst. axis [0,0,1]       

 cryst.   s( 7) = (     0          1          0      )
                  (    -1         -1          0      )
                  (     0          0          1      )

 cart.    s( 7) = ( -0.5000000 -0.8660254  0.0000000 )
                  (  0.8660254 -0.5000000  0.0000000 )
                  (  0.0000000  0.0000000  1.0000000 )


      isym =  8     120 deg rotation - cryst. axis [0,0,-1]      

 cryst.   s( 8) = (    -1         -1          0      )
                  (     1          0          0      )
                  (     0          0          1      )

 cart.    s( 8) = ( -0.5000000  0.8660254  0.0000000 )
                  ( -0.8660254 -0.5000000  0.0000000 )
                  (  0.0000000  0.0000000  1.0000000 )


      isym =  9     180 deg rotation - cryst. axis [1,-1,0]      

 cryst.   s( 9) = (     0         -1          0      )    f =(  0.0000000 )
                  (    -1          0          0      )       (  0.0000000 )
                  (     0          0         -1      )       ( -0.2500000 )

 cart.    s( 9) = (  0.5000000 -0.8660254  0.0000000 )    f =(  0.0000000 )
                  ( -0.8660254 -0.5000000  0.0000000 )       (  0.0000000 )
                  (  0.0000000  0.0000000 -1.0000000 )       ( -1.5000000 )


      isym = 10     180 deg rotation - cryst. axis [2,1,0]       

 cryst.   s(10) = (     1          1          0      )    f =(  0.0000000 )
                  (     0         -1          0      )       (  0.0000000 )
                  (     0          0         -1      )       ( -0.2500000 )

 cart.    s(10) = (  0.5000000  0.8660254  0.0000000 )    f =(  0.0000000 )
                  (  0.8660254 -0.5000000  0.0000000 )       (  0.0000000 )
                  (  0.0000000  0.0000000 -1.0000000 )       ( -1.5000000 )


      isym = 11     180 deg rotation - cryst. axis [0,1,0]       

 cryst.   s(11) = (    -1         -1          0      )    f =( -0.3333333 )
                  (     0          1          0      )       (  0.3333333 )
                  (     0          0         -1      )       ( -0.2500000 )

 cart.    s(11) = ( -0.5000000 -0.8660254  0.0000000 )    f =( -0.5000000 )
                  ( -0.8660254  0.5000000  0.0000000 )       (  0.2886751 )
                  (  0.0000000  0.0000000 -1.0000000 )       ( -1.5000000 )


      isym = 12     180 deg rotation - cryst. axis [1,1,0]       

 cryst.   s(12) = (     0          1          0      )    f =( -0.3333333 )
                  (     1          0          0      )       (  0.3333333 )
                  (     0          0         -1      )       ( -0.2500000 )

 cart.    s(12) = ( -0.5000000  0.8660254  0.0000000 )    f =( -0.5000000 )
                  (  0.8660254  0.5000000  0.0000000 )       (  0.2886751 )
                  (  0.0000000  0.0000000 -1.0000000 )       ( -1.5000000 )


      isym = 13     inversion                                    

 cryst.   s(13) = (    -1          0          0      )    f =( -0.3333333 )
                  (     0         -1          0      )       (  0.3333333 )
                  (     0          0         -1      )       ( -0.2500000 )

 cart.    s(13) = ( -1.0000000  0.0000000  0.0000000 )    f =( -0.5000000 )
                  (  0.0000000 -1.0000000  0.0000000 )       (  0.2886751 )
                  (  0.0000000  0.0000000 -1.0000000 )       ( -1.5000000 )


      isym = 14     inv. 180 deg rotation - cart. axis [0,0,1]   

 cryst.   s(14) = (     1          0          0      )    f =(  0.0000000 )
                  (     0          1          0      )       (  0.0000000 )
                  (     0          0         -1      )       ( -0.2500000 )

 cart.    s(14) = (  1.0000000  0.0000000  0.0000000 )    f =(  0.0000000 )
                  (  0.0000000  1.0000000  0.0000000 )       (  0.0000000 )
                  (  0.0000000  0.0000000 -1.0000000 )       ( -1.5000000 )


      isym = 15     inv. 180 deg rotation - cart. axis [0,1,0]   

 cryst.   s(15) = (     1          0          0      )    f =( -0.3333333 )
                  (    -1         -1          0      )       (  0.3333333 )
                  (     0          0          1      )       (  0.0000000 )

 cart.    s(15) = (  1.0000000  0.0000000  0.0000000 )    f =( -0.5000000 )
                  (  0.0000000 -1.0000000  0.0000000 )       (  0.2886751 )
                  (  0.0000000  0.0000000  1.0000000 )       (  0.0000000 )


      isym = 16     inv. 180 deg rotation - cart. axis [1,0,0]   

 cryst.   s(16) = (    -1          0          0      )
                  (     1          1          0      )
                  (     0          0          1      )

 cart.    s(16) = ( -1.0000000  0.0000000  0.0000000 )
                  (  0.0000000  1.0000000  0.0000000 )
                  (  0.0000000  0.0000000  1.0000000 )


      isym = 17     inv.  60 deg rotation - cryst. axis [0,0,1]  

 cryst.   s(17) = (    -1         -1          0      )    f =(  0.0000000 )
                  (     1          0          0      )       (  0.0000000 )
                  (     0          0         -1      )       ( -0.2500000 )

 cart.    s(17) = ( -0.5000000  0.8660254  0.0000000 )    f =(  0.0000000 )
                  ( -0.8660254 -0.5000000  0.0000000 )       (  0.0000000 )
                  (  0.0000000  0.0000000 -1.0000000 )       ( -1.5000000 )


      isym = 18     inv.  60 deg rotation - cryst. axis [0,0,-1] 

 cryst.   s(18) = (     0          1          0      )    f =(  0.0000000 )
                  (    -1         -1          0      )       (  0.0000000 )
                  (     0          0         -1      )       ( -0.2500000 )

 cart.    s(18) = ( -0.5000000 -0.8660254  0.0000000 )    f =(  0.0000000 )
                  (  0.8660254 -0.5000000  0.0000000 )       (  0.0000000 )
                  (  0.0000000  0.0000000 -1.0000000 )       ( -1.5000000 )


      isym = 19     inv. 120 deg rotation - cryst. axis [0,0,1]  

 cryst.   s(19) = (     0         -1          0      )    f =( -0.3333333 )
                  (     1          1          0      )       (  0.3333333 )
                  (     0          0         -1      )       ( -0.2500000 )

 cart.    s(19) = (  0.5000000  0.8660254  0.0000000 )    f =( -0.5000000 )
                  ( -0.8660254  0.5000000  0.0000000 )       (  0.2886751 )
                  (  0.0000000  0.0000000 -1.0000000 )       ( -1.5000000 )


      isym = 20     inv. 120 deg rotation - cryst. axis [0,0,-1] 

 cryst.   s(20) = (     1          1          0      )    f =( -0.3333333 )
                  (    -1          0          0      )       (  0.3333333 )
                  (     0          0         -1      )       ( -0.2500000 )

 cart.    s(20) = (  0.5000000 -0.8660254  0.0000000 )    f =( -0.5000000 )
                  (  0.8660254  0.5000000  0.0000000 )       (  0.2886751 )
                  (  0.0000000  0.0000000 -1.0000000 )       ( -1.5000000 )


      isym = 21     inv. 180 deg rotation - cryst. axis [1,-1,0] 

 cryst.   s(21) = (     0          1          0      )    f =( -0.3333333 )
                  (     1          0          0      )       (  0.3333333 )
                  (     0          0          1      )       (  0.0000000 )

 cart.    s(21) = ( -0.5000000  0.8660254  0.0000000 )    f =( -0.5000000 )
                  (  0.8660254  0.5000000  0.0000000 )       (  0.2886751 )
                  (  0.0000000  0.0000000  1.0000000 )       (  0.0000000 )


      isym = 22     inv. 180 deg rotation - cryst. axis [2,1,0]  

 cryst.   s(22) = (    -1         -1          0      )    f =( -0.3333333 )
                  (     0          1          0      )       (  0.3333333 )
                  (     0          0          1      )       (  0.0000000 )

 cart.    s(22) = ( -0.5000000 -0.8660254  0.0000000 )    f =( -0.5000000 )
                  ( -0.8660254  0.5000000  0.0000000 )       (  0.2886751 )
                  (  0.0000000  0.0000000  1.0000000 )       (  0.0000000 )


      isym = 23     inv. 180 deg rotation - cryst. axis [0,1,0]  

 cryst.   s(23) = (     1          1          0      )
                  (     0         -1          0      )
                  (     0          0          1      )

 cart.    s(23) = (  0.5000000  0.8660254  0.0000000 )
                  (  0.8660254 -0.5000000  0.0000000 )
                  (  0.0000000  0.0000000  1.0000000 )


      isym = 24     inv. 180 deg rotation - cryst. axis [1,1,0]  

 cryst.   s(24) = (     0         -1          0      )
                  (    -1          0          0      )
                  (     0          0          1      )

 cart.    s(24) = (  0.5000000 -0.8660254  0.0000000 )
                  ( -0.8660254 -0.5000000  0.0000000 )
                  (  0.0000000  0.0000000  1.0000000 )


     point group D_6h(6/mmm)
     there are 12 classes
     the character table:

       E     2C6   2C3   C2    3C2'  3C2'' i     2S3   2S6   s_h   3s_d  3s_v 
A_1g   1.00  1.00  1.00  1.00  1.00  1.00  1.00  1.00  1.00  1.00  1.00  1.00
A_2g   1.00  1.00  1.00  1.00 -1.00 -1.00  1.00  1.00  1.00  1.00 -1.00 -1.00
B_1g   1.00 -1.00  1.00 -1.00  1.00 -1.00  1.00 -1.00  1.00 -1.00  1.00 -1.00
B_2g   1.00 -1.00  1.00 -1.00 -1.00  1.00  1.00 -1.00  1.00 -1.00 -1.00  1.00
E_1g   2.00  1.00 -1.00 -2.00  0.00  0.00  2.00  1.00 -1.00 -2.00  0.00  0.00
E_2g   2.00 -1.00 -1.00  2.00  0.00  0.00  2.00 -1.00 -1.00  2.00  0.00  0.00
A_1u   1.00  1.00  1.00  1.00  1.00  1.00 -1.00 -1.00 -1.00 -1.00 -1.00 -1.00
A_2u   1.00  1.00  1.00  1.00 -1.00 -1.00 -1.00 -1.00 -1.00 -1.00  1.00  1.00
B_1u   1.00 -1.00  1.00 -1.00  1.00 -1.00 -1.00  1.00 -1.00  1.00 -1.00  1.00
B_2u   1.00 -1.00  1.00 -1.00 -1.00  1.00 -1.00  1.00 -1.00  1.00  1.00 -1.00
E_1u   2.00  1.00 -1.00 -2.00  0.00  0.00 -2.00 -1.00  1.00  2.00  0.00  0.00
E_2u   2.00 -1.00 -1.00  2.00  0.00  0.00 -2.00  1.00  1.00 -2.00  0.00  0.00

     the symmetry operations in each class and the name of the first element:

     E        1
          identity                                               
     2C6      5    6
           60 deg rotation - cryst. axis [0,0,1]                 
     2C3      7    8
          120 deg rotation - cryst. axis [0,0,1]                 
     C2       2
          180 deg rotation - cart. axis [0,0,1]                  
     3C2'     4   12   11
          180 deg rotation - cart. axis [1,0,0]                  
     3C2''    3    9   10
          180 deg rotation - cart. axis [0,1,0]                  
     i       13
          inversion                                              
     2S3     17   18
          inv.  60 deg rotation - cryst. axis [0,0,1]            
     2S6     19   20
          inv. 120 deg rotation - cryst. axis [0,0,1]            
     s_h     14
          inv. 180 deg rotation - cart. axis [0,0,1]             
     3s_d    16   24   23
          inv. 180 deg rotation - cart. axis [1,0,0]             
     3s_v    15   21   22
          inv. 180 deg rotation - cart. axis [0,1,0]             

   Cartesian axes

     site n.     atom                  positions (alat units)
         1           C   tau(   1) = (   0.0000000   0.0000000   0.0000000  )
         2           C   tau(   2) = (  -0.0000000   0.5773503   0.0000000  )
         3           C   tau(   3) = (   0.0000000   0.0000000   1.5000000  )
         4           C   tau(   4) = (  -0.0000000   0.5773503   1.5000000  )

   Crystallographic axes

     site n.     atom                  positions (cryst. coord.)
         1           C   tau(   1) = (  0.0000000  0.0000000  0.0000000  )
         2           C   tau(   2) = (  0.3333333  0.6666667  0.0000000  )
         3           C   tau(   3) = (  0.0000000  0.0000000  0.2500000  )
         4           C   tau(   4) = (  0.3333333  0.6666667  0.2500000  )

     number of k points=    19  Marzari-Vanderbilt smearing, width (Ry)=  0.0100
                       cart. coord. in units 2pi/alat
        k(    1) = (   0.0000000   0.0000000   0.0000000), wk =   0.0138889
        k(    2) = (   0.0000000   0.0962250   0.0000000), wk =   0.0833333
        k(    3) = (   0.0000000   0.1924501   0.0000000), wk =   0.0833333
        k(    4) = (   0.0000000   0.2886751   0.0000000), wk =   0.0833333
        k(    5) = (   0.0000000   0.3849002   0.0000000), wk =   0.0833333
        k(    6) = (   0.0000000   0.4811252   0.0000000), wk =   0.0833333
        k(    7) = (   0.0000000  -0.5773503   0.0000000), wk =   0.0416667
        k(    8) = (   0.0833333   0.1443376   0.0000000), wk =   0.0833333
        k(    9) = (   0.0833333   0.2405626   0.0000000), wk =   0.1666667
        k(   10) = (   0.0833333   0.3367877   0.0000000), wk =   0.1666667
        k(   11) = (   0.0833333   0.4330127   0.0000000), wk =   0.1666667
        k(   12) = (   0.0833333   0.5292377   0.0000000), wk =   0.1666667
        k(   13) = (   0.1666667   0.2886751   0.0000000), wk =   0.0833333
        k(   14) = (   0.1666667   0.3849002   0.0000000), wk =   0.1666667
        k(   15) = (   0.1666667   0.4811252   0.0000000), wk =   0.1666667
        k(   16) = (   0.1666667   0.5773503   0.0000000), wk =   0.0833333
        k(   17) = (   0.2500000   0.4330127   0.0000000), wk =   0.0833333
        k(   18) = (   0.2500000   0.5292377   0.0000000), wk =   0.1666667
        k(   19) = (   0.3333333   0.5773503   0.0000000), wk =   0.0277778

                       cryst. coord.
        k(    1) = (   0.0000000   0.0000000   0.0000000), wk =   0.0138889
        k(    2) = (   0.0000000   0.0833333   0.0000000), wk =   0.0833333
        k(    3) = (   0.0000000   0.1666667   0.0000000), wk =   0.0833333
        k(    4) = (   0.0000000   0.2500000   0.0000000), wk =   0.0833333
        k(    5) = (   0.0000000   0.3333333   0.0000000), wk =   0.0833333
        k(    6) = (   0.0000000   0.4166667   0.0000000), wk =   0.0833333
        k(    7) = (   0.0000000  -0.5000000   0.0000000), wk =   0.0416667
        k(    8) = (   0.0833333   0.0833333   0.0000000), wk =   0.0833333
        k(    9) = (   0.0833333   0.1666667   0.0000000), wk =   0.1666667
        k(   10) = (   0.0833333   0.2500000   0.0000000), wk =   0.1666667
        k(   11) = (   0.0833333   0.3333333   0.0000000), wk =   0.1666667
        k(   12) = (   0.0833333   0.4166667   0.0000000), wk =   0.1666667
        k(   13) = (   0.1666667   0.1666667   0.0000000), wk =   0.0833333
        k(   14) = (   0.1666667   0.2500000   0.0000000), wk =   0.1666667
        k(   15) = (   0.1666667   0.3333333   0.0000000), wk =   0.1666667
        k(   16) = (   0.1666667   0.4166667   0.0000000), wk =   0.0833333
        k(   17) = (   0.2500000   0.2500000   0.0000000), wk =   0.0833333
        k(   18) = (   0.2500000   0.3333333   0.0000000), wk =   0.1666667
        k(   19) = (   0.3333333   0.3333333   0.0000000), wk =   0.0277778

     Dense  grid:    32201 G-vectors     FFT dimensions: (  24,  24, 144)

     Dynamical RAM for                 wfc:       0.49 MB

     Dynamical RAM for     wfc (w. buffer):       9.82 MB

     Dynamical RAM for           str. fact:       0.49 MB

     Dynamical RAM for           local pot:       0.00 MB

     Dynamical RAM for          nlocal pot:       1.96 MB

     Dynamical RAM for                qrad:       0.71 MB

     Dynamical RAM for          rho,v,vnew:       3.37 MB

     Dynamical RAM for               rhoin:       1.12 MB

     Dynamical RAM for            rho*nmix:       7.86 MB

     Dynamical RAM for           G-vectors:       2.09 MB

     Dynamical RAM for          h,s,v(r/c):       0.01 MB

     Dynamical RAM for          <psi|beta>:       0.00 MB

     Dynamical RAM for                 psi:       0.98 MB

     Dynamical RAM for                hpsi:       0.98 MB

     Dynamical RAM for      wfcinit/wfcrot:       1.97 MB

     Estimated static dynamical RAM per process >      31.58 MB

     Estimated max dynamical RAM per process >      33.56 MB

     Initial potential from superposition of free atoms

     starting charge   15.99982, renormalised to   16.00000

     negative rho (up, down):  5.229E-06 0.000E+00
     Starting wfcs are   16 randomized atomic wfcs

     total cpu time spent up to now is        1.7 secs

     Self-consistent Calculation

     iteration #  1     ecut=    60.00 Ry     beta= 0.70
     Davidson diagonalization with overlap
     ethr =  1.00E-02,  avg # of iterations =  2.2

     total cpu time spent up to now is        2.9 secs

     total energy              =     -48.12932030 Ry
     estimated scf accuracy    <       0.36617049 Ry

     iteration #  2     ecut=    60.00 Ry     beta= 0.70
     Davidson diagonalization with overlap
     ethr =  2.29E-03,  avg # of iterations =  2.0

     total cpu time spent up to now is        3.9 secs

     total energy              =     -48.17266193 Ry
     estimated scf accuracy    <       0.00590133 Ry

     iteration #  3     ecut=    60.00 Ry     beta= 0.70
     Davidson diagonalization with overlap
     ethr =  3.69E-05,  avg # of iterations =  3.2

     total cpu time spent up to now is        5.1 secs

     total energy              =     -48.17605080 Ry
     estimated scf accuracy    <       0.00053082 Ry

     iteration #  4     ecut=    60.00 Ry     beta= 0.70
     Davidson diagonalization with overlap
     ethr =  3.32E-06,  avg # of iterations =  3.3

     total cpu time spent up to now is        6.2 secs

     total energy              =     -48.17623586 Ry
     estimated scf accuracy    <       0.00018736 Ry

     iteration #  5     ecut=    60.00 Ry     beta= 0.70
     Davidson diagonalization with overlap
     ethr =  1.17E-06,  avg # of iterations =  2.3

     total cpu time spent up to now is        7.3 secs

     total energy              =     -48.17627771 Ry
     estimated scf accuracy    <       0.00000942 Ry

     iteration #  6     ecut=    60.00 Ry     beta= 0.70
     Davidson diagonalization with overlap
     ethr =  5.89E-08,  avg # of iterations =  4.9

     total cpu time spent up to now is        8.7 secs

     total energy              =     -48.17628439 Ry
     estimated scf accuracy    <       0.00000210 Ry

     iteration #  7     ecut=    60.00 Ry     beta= 0.70
     Davidson diagonalization with overlap
     ethr =  1.32E-08,  avg # of iterations =  2.9

     total cpu time spent up to now is       10.1 secs

     End of self-consistent calculation

          k = 0.0000 0.0000 0.0000 (  4005 PWs)   bands (ev):

   -18.7477 -18.6760  -7.0581  -6.4543  -1.9973  -1.9973  -1.9940  -1.9940

     occupation numbers 
     1.0000   1.0000   1.0000   1.0000   1.0000   1.0000   1.0000   1.0000

          k = 0.0000 0.0962 0.0000 (  4020 PWs)   bands (ev):

   -18.5810 -18.5100  -6.8557  -6.2562  -2.6605  -2.6526  -2.3494  -2.3428

     occupation numbers 
     1.0000   1.0000   1.0000   1.0000   1.0000   1.0000   1.0000   1.0000

          k = 0.0000 0.1925 0.0000 (  4038 PWs)   bands (ev):

   -18.0825 -18.0140  -6.2541  -5.6669  -4.3282  -4.3130  -3.1681  -3.1597

     occupation numbers 
     1.0000   1.0000   1.0000   1.0000   1.0000   1.0000   1.0000   1.0000

          k = 0.0000 0.2887 0.0000 (  4016 PWs)   bands (ev):

   -17.2580 -17.1929  -6.4637  -6.4405  -5.2708  -4.7062  -4.0754  -4.0652

     occupation numbers 
     1.0000   1.0000   1.0000   1.0000   1.0000   1.0000   1.0000   1.0000

          k = 0.0000 0.3849 0.0000 (  4040 PWs)   bands (ev):

   -16.1190 -16.0593  -8.7070  -8.6776  -4.8307  -4.8208  -3.9568  -3.4275

     occupation numbers 
     1.0000   1.0000   1.0000   1.0000   1.0000   1.0000   1.0000   1.0000

          k = 0.0000 0.4811 0.0000 (  4028 PWs)   bands (ev):

   -14.6949 -14.6410 -10.8490 -10.8117  -5.3176  -5.3065  -2.4706  -2.0004

     occupation numbers 
     1.0000   1.0000   1.0000   1.0000   1.0000   1.0000   1.0000   1.0000

          k = 0.0000-0.5774 0.0000 (  4024 PWs)   bands (ev):

   -13.3794 -13.3284 -12.4125 -12.3706  -5.4852  -5.4724  -1.5743  -1.1621

     occupation numbers 
     1.0000   1.0000   1.0000   1.0000   1.0000   1.0000   1.0000   1.0000

          k = 0.0833 0.1443 0.0000 (  4045 PWs)   bands (ev):

   -18.2485 -18.1790  -6.4538  -5.8627  -3.7122  -3.6988  -3.0493  -3.0409

     occupation numbers 
     1.0000   1.0000   1.0000   1.0000   1.0000   1.0000   1.0000   1.0000

          k = 0.0833 0.2406 0.0000 (  4025 PWs)   bands (ev):

   -17.5868 -17.5205  -5.6600  -5.4505  -5.4311  -5.0863  -4.0767  -4.0651

     occupation numbers 
     1.0000   1.0000   1.0000   1.0000   1.0000   1.0000   1.0000   1.0000

          k = 0.0833 0.3368 0.0000 (  4029 PWs)   bands (ev):

   -16.6052 -16.5430  -7.5617  -7.5357  -4.9868  -4.9739  -4.5048  -3.9601

     occupation numbers 
     1.0000   1.0000   1.0000   1.0000   1.0000   1.0000   1.0000   1.0000

          k = 0.0833 0.4330 0.0000 (  4009 PWs)   bands (ev):

   -15.3209 -15.2644  -9.7249  -9.6914  -5.6379  -5.6239  -3.0707  -2.5711

     occupation numbers 
     1.0000   1.0000   1.0000   1.0000   1.0000   1.0000   1.0000   1.0000

          k = 0.0833 0.5292 0.0000 (  4026 PWs)   bands (ev):

   -13.8047 -13.7537 -11.7125 -11.6726  -5.9751  -5.9610  -1.6949  -1.2628

     occupation numbers 
     1.0000   1.0000   1.0000   1.0000   1.0000   1.0000   1.0000   1.0000

          k = 0.1667 0.2887 0.0000 (  4032 PWs)   bands (ev):

   -16.7683 -16.7055  -6.7963  -6.7737  -5.4773  -5.4606  -4.6906  -4.1404

     occupation numbers 
     1.0000   1.0000   1.0000   1.0000   1.0000   1.0000   1.0000   1.0000

          k = 0.1667 0.3849 0.0000 (  4020 PWs)   bands (ev):

   -15.6403 -15.5822  -8.5561  -8.5266  -6.5564  -6.5369  -3.3908  -2.8769

     occupation numbers 
     1.0000   1.0000   1.0000   1.0000   1.0000   1.0000   1.0000   1.0000

          k = 0.1667 0.4811 0.0000 (  4002 PWs)   bands (ev):

   -14.2363 -14.1839 -10.5083 -10.4725  -7.1406  -7.1201  -1.9029  -1.4430

     occupation numbers 
     1.0000   1.0000   1.0000   1.0000   1.0000   1.0000   1.0000   1.0000

          k = 0.1667 0.5774 0.0000 (  4032 PWs)   bands (ev):

   -12.9538 -12.9054 -11.9967 -11.9570  -7.3289  -7.3081  -0.9600  -0.5542

     occupation numbers 
     1.0000   1.0000   1.0000   1.0000   1.0000   1.0000   1.0000   1.0000

          k = 0.2500 0.4330 0.0000 (  3996 PWs)   bands (ev):

   -14.3883 -14.3354  -9.5946  -9.5617  -8.0834  -8.0584  -1.9945  -1.5236

     occupation numbers 
     1.0000   1.0000   1.0000   1.0000   1.0000   1.0000   1.0000   1.0000

          k = 0.2500 0.5292 0.0000 (  4003 PWs)   bands (ev):

   -12.9315 -12.8844 -11.0525 -11.0145  -8.8021  -8.7748  -0.5473  -0.1325

     occupation numbers 
     1.0000   1.0000   1.0000   1.0000   1.0000   1.0000   1.0000   1.0000

          k = 0.3333 0.5774 0.0000 (  3942 PWs)   bands (ev):

   -11.6819 -11.6819 -11.6400 -11.6400  -9.7463  -9.7178   0.8589   0.8589

     occupation numbers 
     1.0000   1.0000   1.0000   1.0000   1.0000   1.0000   1.0000   1.0000

     the Fermi energy is     0.9842 ev

!    total energy              =     -48.17628485 Ry
     estimated scf accuracy    <       0.00000003 Ry
     smearing contrib. (-TS)   =       0.00004531 Ry
     internal energy E=F+TS    =     -48.17633016 Ry

     The total energy is F=E-TS. E is the sum of the following terms:
     one-electron contribution =    -263.38859548 Ry
     hartree contribution      =     136.30047213 Ry
     xc contribution           =     -17.23447709 Ry
     ewald contribution        =      96.14627028 Ry

     convergence has been achieved in   7 iterations

     Forces acting on atoms (cartesian axes, Ry/au):

     atom    1 type  1   force =     0.00000000   -0.00000000   -0.00095670
     atom    2 type  1   force =     0.00000000    0.00000000   -0.00095670
     atom    3 type  1   force =    -0.00000000   -0.00000000    0.00095670
     atom    4 type  1   force =    -0.00000000   -0.00000000    0.00095670
     The non-local contrib.  to forces
     atom    1 type  1   force =    -0.00000000   -0.00000000   -0.00100335
     atom    2 type  1   force =     0.00000000    0.00000000   -0.00100335
     atom    3 type  1   force =     0.00000000   -0.00000000    0.00100335
     atom    4 type  1   force =     0.00000000    0.00000000    0.00100335
     The ionic contribution  to forces
     atom    1 type  1   force =    -0.00000001    0.00000001  -10.87635474
     atom    2 type  1   force =     0.00000001   -0.00000001  -10.87635474
     atom    3 type  1   force =    -0.00000001    0.00000001   10.87635474
     atom    4 type  1   force =     0.00000001   -0.00000001   10.87635474
     The local contribution  to forces
     atom    1 type  1   force =     0.00000000   -0.00000000   10.87652633
     atom    2 type  1   force =     0.00000001   -0.00000000   10.87652633
     atom    3 type  1   force =     0.00000000   -0.00000000  -10.87652633
     atom    4 type  1   force =     0.00000001   -0.00000000  -10.87652633
     The core correction contribution to forces
     atom    1 type  1   force =     0.00000000   -0.00000000    0.00004962
     atom    2 type  1   force =    -0.00000000    0.00000000    0.00004962
     atom    3 type  1   force =     0.00000000   -0.00000000   -0.00004962
     atom    4 type  1   force =    -0.00000000    0.00000000   -0.00004962
     The Hubbard contrib.    to forces
     atom    1 type  1   force =     0.00000000    0.00000000    0.00000000
     atom    2 type  1   force =     0.00000000    0.00000000    0.00000000
     atom    3 type  1   force =     0.00000000    0.00000000    0.00000000
     atom    4 type  1   force =     0.00000000    0.00000000    0.00000000
     The SCF correction term to forces
     atom    1 type  1   force =    -0.00000000    0.00000000   -0.00017456
     atom    2 type  1   force =     0.00000000   -0.00000000   -0.00017456
     atom    3 type  1   force =    -0.00000000    0.00000000    0.00017456
     atom    4 type  1   force =     0.00000000   -0.00000000    0.00017456

     Total force =     0.001913     Total SCF correction =     0.000349
     SCF correction compared to forces is large: reduce conv_thr to get better values


     Computing stress (Cartesian axis) and pressure

          total   stress  (Ry/bohr**3)                   (kbar)     P=       13.99
   0.00020527   0.00000000   0.00000000           30.20        0.00        0.00
   0.00000000   0.00020527   0.00000000            0.00       30.20        0.00
   0.00000000   0.00000000  -0.00012530            0.00        0.00      -18.43

     kinetic stress (kbar)   6260.94     -0.00      0.00
                               -0.00   6260.94     -0.00
                                0.00     -0.00   6885.23

     local   stress (kbar) -81832.94      0.00      0.00
                                0.00 -81832.94      0.00
                                0.00      0.00  83777.93

     nonloc. stress (kbar)   -653.60      0.00     -0.00
                                0.00   -653.60     -0.00
                               -0.00     -0.00   -546.38

     hartree stress (kbar)  38653.84     -0.00     -0.00
                               -0.00  38653.84     -0.00
                               -0.00     -0.00 -38184.63

     exc-cor stress (kbar)   -498.40     -0.00     -0.00
                               -0.00   -498.40     -0.00
                               -0.00     -0.00   -556.76

     corecor stress (kbar)   -937.87      0.00     -0.00
                                0.00   -937.87      0.00
                               -0.00      0.00   -914.75

     ewald   stress (kbar)  39038.22     -0.00      0.00
                               -0.00  39038.22     -0.00
                                0.00     -0.00 -50479.07

     hubbard stress (kbar)      0.00      0.00      0.00
                                0.00      0.00      0.00
                                0.00      0.00      0.00

     DFT-D   stress (kbar)      0.00      0.00      0.00
                                0.00      0.00      0.00
                                0.00      0.00      0.00

     XDM     stress (kbar)      0.00      0.00      0.00
                                0.00      0.00      0.00
                                0.00      0.00      0.00

     dft-nl  stress (kbar)      0.00      0.00      0.00
                                0.00      0.00      0.00
                                0.00      0.00      0.00

     TS-vdW  stress (kbar)      0.00      0.00      0.00
                                0.00      0.00      0.00
                                0.00      0.00      0.00



     BFGS Geometry Optimization
     Energy error            =      0.0E+00
     Gradient error          =      9.6E-04
     Cell gradient error     =      2.1E-04


     number of scf cycles    =   1
     number of bfgs steps    =   0

     enthalpy new            =     -48.1762848544 Ry

     new trust radius        =       0.0232346340 bohr
     new conv_thr            =       0.0000010000 Ry

     new unit-cell volume =    516.14979 a.u.^3 (    76.48551 Ang^3 )
     density =      1.04306 g/cm^3

CELL_PARAMETERS (alat=  4.62030000)
   1.005131681   0.000000000   0.000000000
  -0.502565840   0.870469570   0.000000000
   0.000000000   0.000000000   5.981204823

ATOMIC_POSITIONS (crystal)
C            -0.0000000000       -0.0000000000       -0.0000345106
C             0.3333333330        0.6666666670       -0.0000345106
C            -0.0000000000       -0.0000000000        0.2500345106
C             0.3333333330        0.6666666670        0.2500345106



     Writing output data file ./tmp/graphene.save/
     NEW-OLD atomic charge density approx. for the potential

     negative rho (up, down):  1.483E-07 0.000E+00
     extrapolated charge   16.11319, renormalised to   16.00000

     total cpu time spent up to now is       15.5 secs

     Self-consistent Calculation

     iteration #  1     ecut=    60.00 Ry     beta= 0.70
     Davidson diagonalization with overlap
     ethr =  1.00E-06,  avg # of iterations =  6.2

     total cpu time spent up to now is       19.1 secs

     total energy              =     -48.16486002 Ry
     estimated scf accuracy    <       0.00917935 Ry

     iteration #  2     ecut=    60.00 Ry     beta= 0.70
     Davidson diagonalization with overlap
     ethr =  5.74E-05,  avg # of iterations =  3.8

     total cpu time spent up to now is       21.6 secs

     total energy              =     -48.17490737 Ry
     estimated scf accuracy    <       0.03474708 Ry

     iteration #  3     ecut=    60.00 Ry     beta= 0.70
     Davidson diagonalization with overlap
     ethr =  5.74E-05,  avg # of iterations =  2.1

     total cpu time spent up to now is       23.6 secs

     total energy              =     -48.17679332 Ry
     estimated scf accuracy    <       0.00456512 Ry

     iteration #  4     ecut=    60.00 Ry     beta= 0.70
     Davidson diagonalization with overlap
     ethr =  2.85E-05,  avg # of iterations =  2.0

     total cpu time spent up to now is       25.5 secs

     total energy              =     -48.17696762 Ry
     estimated scf accuracy    <       0.00102105 Ry

     iteration #  5     ecut=    60.00 Ry     beta= 0.70
     Davidson diagonalization with overlap
     ethr =  6.38E-06,  avg # of iterations =  1.9

     total cpu time spent up to now is       27.2 secs

     total energy              =     -48.17707482 Ry
     estimated scf accuracy    <       0.00034361 Ry

     iteration #  6     ecut=    60.00 Ry     beta= 0.70
     Davidson diagonalization with overlap
     ethr =  2.15E-06,  avg # of iterations =  1.3

     total cpu time spent up to now is       29.1 secs

     total energy              =     -48.17704339 Ry
     estimated scf accuracy    <       0.00035067 Ry

     iteration #  7     ecut=    60.00 Ry     beta= 0.70
     Davidson diagonalization with overlap
     ethr =  2.15E-06,  avg # of iterations =  1.0

     total cpu time spent up to now is       31.0 secs

     total energy              =     -48.17695261 Ry
     estimated scf accuracy    <       0.00022334 Ry

     iteration #  8     ecut=    60.00 Ry     beta= 0.70
     Davidson diagonalization with overlap
     ethr =  1.40E-06,  avg # of iterations =  2.1

     total cpu time spent up to now is       33.0 secs

     total energy              =     -48.17699650 Ry
     estimated scf accuracy    <       0.00000543 Ry

     iteration #  9     ecut=    60.00 Ry     beta= 0.70
     Davidson diagonalization with overlap
     ethr =  3.39E-08,  avg # of iterations =  4.6

     total cpu time spent up to now is       35.7 secs

     End of self-consistent calculation

          k = 0.0000 0.0000 0.0000 (  4005 PWs)   bands (ev):

   -18.6831 -18.6089  -7.0194  -6.4015  -2.0612  -2.0612  -2.0576  -2.0576

     occupation numbers 
     1.0000   1.0000   1.0000   1.0000   1.0000   1.0000   1.0000   1.0000

          k =-0.0000 0.0957-0.0000 (  4020 PWs)   bands (ev):

   -18.5179 -18.4444  -6.8194  -6.2058  -2.7208  -2.7124  -2.4079  -2.4008

     occupation numbers 
     1.0000   1.0000   1.0000   1.0000   1.0000   1.0000   1.0000   1.0000

          k =-0.0000 0.1915-0.0000 (  4038 PWs)   bands (ev):

   -18.0238 -17.9528  -6.2252  -5.6242  -4.3774  -4.3614  -3.2143  -3.2054

     occupation numbers 
     1.0000   1.0000   1.0000   1.0000   1.0000   1.0000   1.0000   1.0000

          k =-0.0000 0.2872-0.0000 (  4016 PWs)   bands (ev):

   -17.2067 -17.1393  -6.4964  -6.4721  -5.2541  -4.6762  -4.1088  -4.0981

     occupation numbers 
     1.0000   1.0000   1.0000   1.0000   1.0000   1.0000   1.0000   1.0000

          k =-0.0000 0.3829-0.0000 (  4040 PWs)   bands (ev):

   -16.0784 -16.0165  -8.7207  -8.6899  -4.8539  -4.8434  -3.9570  -3.4149

     occupation numbers 
     1.0000   1.0000   1.0000   1.0000   1.0000   1.0000   1.0000   1.0000

          k =-0.0000 0.4787-0.0000 (  4028 PWs)   bands (ev):

   -14.6696 -14.6136 -10.8417 -10.8027  -5.3344  -5.3227  -2.4911  -2.0090

     occupation numbers 
     1.0000   1.0000   1.0000   1.0000   1.0000   1.0000   1.0000   1.0000

          k = 0.0000-0.5744 0.0000 (  4024 PWs)   bands (ev):

   -13.3854 -13.3324 -12.3720 -12.3282  -5.4999  -5.4864  -1.6089  -1.1852

     occupation numbers 
     1.0000   1.0000   1.0000   1.0000   1.0000   1.0000   1.0000   1.0000

          k = 0.0829 0.1436-0.0000 (  4045 PWs)   bands (ev):

   -18.1883 -18.1164  -6.4225  -5.8174  -3.7671  -3.7529  -3.0970  -3.0880

     occupation numbers 
     1.0000   1.0000   1.0000   1.0000   1.0000   1.0000   1.0000   1.0000

          k = 0.0829 0.2393-0.0000 (  4025 PWs)   bands (ev):

   -17.5326 -17.4638  -5.6384  -5.4934  -5.4730  -5.0512  -4.1105  -4.0982

     occupation numbers 
     1.0000   1.0000   1.0000   1.0000   1.0000   1.0000   1.0000   1.0000

          k = 0.0829 0.3351-0.0000 (  4029 PWs)   bands (ev):

   -16.5599 -16.4955  -7.5869  -7.5596  -5.0098  -4.9961  -4.4978  -3.9401

     occupation numbers 
     1.0000   1.0000   1.0000   1.0000   1.0000   1.0000   1.0000   1.0000

          k = 0.0829 0.4308-0.0000 (  4009 PWs)   bands (ev):

   -15.2883 -15.2295  -9.7301  -9.6950  -5.6533  -5.6385  -3.0825  -2.5707

     occupation numbers 
     1.0000   1.0000   1.0000   1.0000   1.0000   1.0000   1.0000   1.0000

          k = 0.0829 0.5265-0.0000 (  4026 PWs)   bands (ev):

   -13.7927 -13.7396 -11.6931 -11.6515  -5.9866  -5.9717  -1.7268  -1.2832

     occupation numbers 
     1.0000   1.0000   1.0000   1.0000   1.0000   1.0000   1.0000   1.0000

          k = 0.1658 0.2872-0.0000 (  4032 PWs)   bands (ev):

   -16.7215 -16.6564  -6.8344  -6.8106  -5.4913  -5.4737  -4.6812  -4.1179

     occupation numbers 
     1.0000   1.0000   1.0000   1.0000   1.0000   1.0000   1.0000   1.0000

          k = 0.1658 0.3829-0.0000 (  4020 PWs)   bands (ev):

   -15.6042 -15.5439  -8.5785  -8.5476  -6.5599  -6.5395  -3.3981  -2.8717

     occupation numbers 
     1.0000   1.0000   1.0000   1.0000   1.0000   1.0000   1.0000   1.0000

          k = 0.1658 0.4787-0.0000 (  4002 PWs)   bands (ev):

   -14.2153 -14.1608 -10.5086 -10.4712  -7.1409  -7.1194  -1.9305  -1.4590

     occupation numbers 
     1.0000   1.0000   1.0000   1.0000   1.0000   1.0000   1.0000   1.0000

          k = 0.1658 0.5744-0.0000 (  4032 PWs)   bands (ev):

   -12.9616 -12.9112 -11.9658 -11.9244  -7.3281  -7.3063  -1.0021  -0.5850

     occupation numbers 
     1.0000   1.0000   1.0000   1.0000   1.0000   1.0000   1.0000   1.0000

          k = 0.2487 0.4308-0.0000 (  3996 PWs)   bands (ev):

   -14.3650 -14.3099  -9.6181  -9.5837  -8.0626  -8.0364  -2.0203  -1.5377

     occupation numbers 
     1.0000   1.0000   1.0000   1.0000   1.0000   1.0000   1.0000   1.0000

          k = 0.2487 0.5265-0.0000 (  4003 PWs)   bands (ev):

   -12.9272 -12.8782 -11.0555 -11.0158  -8.7769  -8.7482  -0.5935  -0.1675

     occupation numbers 
     1.0000   1.0000   1.0000   1.0000   1.0000   1.0000   1.0000   1.0000

          k = 0.3316 0.5744-0.0000 (  3942 PWs)   bands (ev):

   -11.6953 -11.6953 -11.6516 -11.6516  -9.6906  -9.6607   0.7941   0.7941

     occupation numbers 
     1.0000   1.0000   1.0000   1.0000   1.0000   1.0000   1.0000   1.0000

     the Fermi energy is     0.9194 ev

!    total energy              =     -48.17700170 Ry
     estimated scf accuracy    <       0.00000040 Ry
     smearing contrib. (-TS)   =       0.00004531 Ry
     internal energy E=F+TS    =     -48.17704700 Ry

     The total energy is F=E-TS. E is the sum of the following terms:
     one-electron contribution =    -259.48002920 Ry
     hartree contribution      =     134.31428605 Ry
     xc contribution           =     -17.18706963 Ry
     ewald contribution        =      94.17576578 Ry

     convergence has been achieved in   9 iterations

     Forces acting on atoms (cartesian axes, Ry/au):

     atom    1 type  1   force =     0.00000000   -0.00000000   -0.00091411
     atom    2 type  1   force =    -0.00000000   -0.00000000   -0.00091411
     atom    3 type  1   force =     0.00000000    0.00000000    0.00091411
     atom    4 type  1   force =    -0.00000000    0.00000000    0.00091411
     The non-local contrib.  to forces
     atom    1 type  1   force =    -0.00000000   -0.00000000   -0.00126980
     atom    2 type  1   force =     0.00000000    0.00000000   -0.00126980
     atom    3 type  1   force =    -0.00000000   -0.00000000    0.00126980
     atom    4 type  1   force =     0.00000000    0.00000000    0.00126980
     The ionic contribution  to forces
     atom    1 type  1   force =    -0.00000001    0.00000000  -10.76266308
     atom    2 type  1   force =     0.00000001   -0.00000000  -10.76266308
     atom    3 type  1   force =    -0.00000001    0.00000000   10.76266308
     atom    4 type  1   force =     0.00000001   -0.00000000   10.76266308
     The local contribution  to forces
     atom    1 type  1   force =     0.00000000   -0.00000000   10.76347897
     atom    2 type  1   force =     0.00000001   -0.00000000   10.76347897
     atom    3 type  1   force =     0.00000000   -0.00000000  -10.76347897
     atom    4 type  1   force =     0.00000001   -0.00000000  -10.76347897
     The core correction contribution to forces
     atom    1 type  1   force =     0.00000000   -0.00000000    0.00006767
     atom    2 type  1   force =    -0.00000000    0.00000000    0.00006767
     atom    3 type  1   force =     0.00000000   -0.00000000   -0.00006767
     atom    4 type  1   force =    -0.00000000    0.00000000   -0.00006767
     The Hubbard contrib.    to forces
     atom    1 type  1   force =     0.00000000    0.00000000    0.00000000
     atom    2 type  1   force =     0.00000000    0.00000000    0.00000000
     atom    3 type  1   force =     0.00000000    0.00000000    0.00000000
     atom    4 type  1   force =     0.00000000    0.00000000    0.00000000
     The SCF correction term to forces
     atom    1 type  1   force =    -0.00000000    0.00000000   -0.00052787
     atom    2 type  1   force =     0.00000000   -0.00000000   -0.00052787
     atom    3 type  1   force =    -0.00000000    0.00000000    0.00052787
     atom    4 type  1   force =     0.00000000   -0.00000000    0.00052787

     Total force =     0.001828     Total SCF correction =     0.001056
     SCF correction compared to forces is large: reduce conv_thr to get better values


     Computing stress (Cartesian axis) and pressure

          total   stress  (Ry/bohr**3)                   (kbar)     P=       -6.83
  -0.00000747   0.00000000  -0.00000000           -1.10        0.00       -0.00
   0.00000000  -0.00000747   0.00000000            0.00       -1.10        0.00
   0.00000000   0.00000000  -0.00012439            0.00        0.00      -18.30

     kinetic stress (kbar)   6176.60     -0.00     -0.00
                               -0.00   6176.60     -0.00
                                0.00      0.00   6813.50

     local   stress (kbar) -80070.04      0.00      0.00
                                0.00 -80070.04      0.00
                                0.00      0.00  81944.28

     nonloc. stress (kbar)   -638.38      0.00      0.00
                                0.00   -638.38      0.00
                                0.00      0.00   -536.04

     hartree stress (kbar)  37809.76     -0.00     -0.00
                               -0.00  37809.76      0.00
                               -0.00      0.00 -37339.33

     exc-cor stress (kbar)   -491.42     -0.00     -0.00
                               -0.00   -491.42      0.00
                               -0.00      0.00   -549.00

     corecor stress (kbar)   -929.95      0.00      0.00
                                0.00   -929.95     -0.00
                                0.00     -0.00   -907.58

     ewald   stress (kbar)  38142.33     -0.00     -0.00
                               -0.00  38142.33     -0.00
                               -0.00     -0.00 -49444.14

     hubbard stress (kbar)      0.00      0.00      0.00
                                0.00      0.00      0.00
                                0.00      0.00      0.00

     DFT-D   stress (kbar)      0.00      0.00      0.00
                                0.00      0.00      0.00
                                0.00      0.00      0.00

     XDM     stress (kbar)      0.00      0.00      0.00
                                0.00      0.00      0.00
                                0.00      0.00      0.00

     dft-nl  stress (kbar)      0.00      0.00      0.00
                                0.00      0.00      0.00
                                0.00      0.00      0.00

     TS-vdW  stress (kbar)      0.00      0.00      0.00
                                0.00      0.00      0.00
                                0.00      0.00      0.00


     Energy error            =      7.2E-04
     Gradient error          =      9.1E-04
     Cell gradient error     =      1.2E-04


     number of scf cycles    =   2
     number of bfgs steps    =   1

     enthalpy old            =     -48.1762848544 Ry
     enthalpy new            =     -48.1770016997 Ry

     CASE: enthalpy_new < enthalpy_old

     new trust radius        =       0.0191657511 bohr
     new conv_thr            =       0.0000000100 Ry

     new unit-cell volume =    514.75365 a.u.^3 (    76.27862 Ang^3 )
     density =      1.04589 g/cm^3

CELL_PARAMETERS (alat=  4.62030000)
   1.005895041   0.000000000   0.000000000
  -0.502947521   0.871130659   0.000000000
  -0.000000000   0.000000000   5.955976020

ATOMIC_POSITIONS (crystal)
C            -0.0000000000       -0.0000000000       -0.0000788344
C             0.3333333330        0.6666666670       -0.0000788344
C            -0.0000000000        0.0000000000        0.2500788344
C             0.3333333330        0.6666666670        0.2500788344



     Writing output data file ./tmp/graphene.save/
     NEW-OLD atomic charge density approx. for the potential

     negative rho (up, down):  1.331E-07 0.000E+00
     extrapolated charge   15.95660, renormalised to   16.00000

     total cpu time spent up to now is       40.9 secs

     Self-consistent Calculation

     iteration #  1     ecut=    60.00 Ry     beta= 0.70
     Davidson diagonalization with overlap
     ethr =  1.00E-06,  avg # of iterations =  4.0

     total cpu time spent up to now is       44.0 secs

     total energy              =     -48.17596629 Ry
     estimated scf accuracy    <       0.00088605 Ry

     iteration #  2     ecut=    60.00 Ry     beta= 0.70
     Davidson diagonalization with overlap
     ethr =  5.54E-06,  avg # of iterations =  4.1

     total cpu time spent up to now is       47.0 secs

     total energy              =     -48.17703544 Ry
     estimated scf accuracy    <       0.00393085 Ry

     iteration #  3     ecut=    60.00 Ry     beta= 0.70
     Davidson diagonalization with overlap
     ethr =  5.54E-06,  avg # of iterations =  2.1

     total cpu time spent up to now is       48.9 secs

     total energy              =     -48.17724115 Ry
     estimated scf accuracy    <       0.00056096 Ry

     iteration #  4     ecut=    60.00 Ry     beta= 0.70
     Davidson diagonalization with overlap
     ethr =  3.51E-06,  avg # of iterations =  1.9

     total cpu time spent up to now is       50.7 secs

     total energy              =     -48.17721711 Ry
     estimated scf accuracy    <       0.00016212 Ry

     iteration #  5     ecut=    60.00 Ry     beta= 0.70
     Davidson diagonalization with overlap
     ethr =  1.01E-06,  avg # of iterations =  2.2

     total cpu time spent up to now is       52.6 secs

     total energy              =     -48.17724088 Ry
     estimated scf accuracy    <       0.00001164 Ry

     iteration #  6     ecut=    60.00 Ry     beta= 0.70
     Davidson diagonalization with overlap
     ethr =  7.28E-08,  avg # of iterations =  3.9

     total cpu time spent up to now is       54.7 secs

     total energy              =     -48.17724384 Ry
     estimated scf accuracy    <       0.00000260 Ry

     iteration #  7     ecut=    60.00 Ry     beta= 0.70
     Davidson diagonalization with overlap
     ethr =  1.62E-08,  avg # of iterations =  3.3

     total cpu time spent up to now is       57.0 secs

     total energy              =     -48.17724336 Ry
     estimated scf accuracy    <       0.00000326 Ry

     iteration #  8     ecut=    60.00 Ry     beta= 0.70
     Davidson diagonalization with overlap
     ethr =  1.62E-08,  avg # of iterations =  2.8

     total cpu time spent up to now is       59.2 secs

     total energy              =     -48.17724439 Ry
     estimated scf accuracy    <       0.00000213 Ry

     iteration #  9     ecut=    60.00 Ry     beta= 0.70
     Davidson diagonalization with overlap
     ethr =  1.33E-08,  avg # of iterations =  1.9

     total cpu time spent up to now is       60.9 secs

     total energy              =     -48.17724429 Ry
     estimated scf accuracy    <       0.00000035 Ry

     iteration # 10     ecut=    60.00 Ry     beta= 0.70
     Davidson diagonalization with overlap
     ethr =  2.18E-09,  avg # of iterations =  3.7

     total cpu time spent up to now is       63.2 secs

     total energy              =     -48.17724447 Ry
     estimated scf accuracy    <       0.00000028 Ry

     iteration # 11     ecut=    60.00 Ry     beta= 0.70
     Davidson diagonalization with overlap
     ethr =  1.77E-09,  avg # of iterations =  1.9

     total cpu time spent up to now is       64.8 secs

     total energy              =     -48.17724447 Ry
     estimated scf accuracy    <       0.00000005 Ry

     iteration # 12     ecut=    60.00 Ry     beta= 0.70
     Davidson diagonalization with overlap
     ethr =  3.22E-10,  avg # of iterations =  1.9

     total cpu time spent up to now is       66.4 secs

     total energy              =     -48.17724448 Ry
     estimated scf accuracy    <       0.00000001 Ry

     iteration # 13     ecut=    60.00 Ry     beta= 0.70
     Davidson diagonalization with overlap
     ethr =  9.34E-11,  avg # of iterations =  2.0

     total cpu time spent up to now is       68.1 secs

     End of self-consistent calculation

          k = 0.0000 0.0000 0.0000 (  4005 PWs)   bands (ev):

   -18.6592 -18.5824  -7.0037  -6.3717  -2.0561  -2.0561  -2.0520  -2.0520

     occupation numbers 
     1.0000   1.0000   1.0000   1.0000   1.0000   1.0000   1.0000   1.0000

          k =-0.0000 0.0957-0.0000 (  4020 PWs)   bands (ev):

   -18.4942 -18.4182  -6.8041  -6.1765  -2.7151  -2.7062  -2.4019  -2.3944

     occupation numbers 
     1.0000   1.0000   1.0000   1.0000   1.0000   1.0000   1.0000   1.0000

          k =-0.0000 0.1913-0.0000 (  4038 PWs)   bands (ev):

   -18.0008 -17.9273  -6.2109  -5.5960  -4.3701  -4.3534  -3.2064  -3.1971

     occupation numbers 
     1.0000   1.0000   1.0000   1.0000   1.0000   1.0000   1.0000   1.0000

          k =-0.0000 0.2870-0.0000 (  4016 PWs)   bands (ev):

   -17.1848 -17.1149  -6.4867  -6.4614  -5.2415  -4.6501  -4.0991  -4.0879

     occupation numbers 
     1.0000   1.0000   1.0000   1.0000   1.0000   1.0000   1.0000   1.0000

          k =-0.0000 0.3826-0.0000 (  4040 PWs)   bands (ev):

   -16.0580 -15.9939  -8.7081  -8.6761  -4.8426  -4.8317  -3.9467  -3.3918

     occupation numbers 
     1.0000   1.0000   1.0000   1.0000   1.0000   1.0000   1.0000   1.0000

          k =-0.0000 0.4783-0.0000 (  4028 PWs)   bands (ev):

   -14.6515 -14.5933 -10.8261 -10.7856  -5.3222  -5.3100  -2.4836  -1.9896

     occupation numbers 
     1.0000   1.0000   1.0000   1.0000   1.0000   1.0000   1.0000   1.0000

          k = 0.0000-0.5740 0.0000 (  4024 PWs)   bands (ev):

   -13.3718 -13.3168 -12.3515 -12.3060  -5.4873  -5.4734  -1.6033  -1.1684

     occupation numbers 
     1.0000   1.0000   1.0000   1.0000   1.0000   1.0000   1.0000   1.0000

          k = 0.0828 0.1435-0.0000 (  4045 PWs)   bands (ev):

   -18.1651 -18.0907  -6.4078  -5.7888  -3.7605  -3.7458  -3.0894  -3.0800

     occupation numbers 
     1.0000   1.0000   1.0000   1.0000   1.0000   1.0000   1.0000   1.0000

          k = 0.0828 0.2392-0.0000 (  4025 PWs)   bands (ev):

   -17.5102 -17.4390  -5.6251  -5.4851  -5.4639  -5.0243  -4.1008  -4.0880

     occupation numbers 
     1.0000   1.0000   1.0000   1.0000   1.0000   1.0000   1.0000   1.0000

          k = 0.0828 0.3348-0.0000 (  4029 PWs)   bands (ev):

   -16.5388 -16.4721  -7.5760  -7.5475  -4.9985  -4.9842  -4.4865  -3.9157

     occupation numbers 
     1.0000   1.0000   1.0000   1.0000   1.0000   1.0000   1.0000   1.0000

          k = 0.0828 0.4305-0.0000 (  4009 PWs)   bands (ev):

   -15.2690 -15.2081  -9.7163  -9.6799  -5.6409  -5.6255  -3.0739  -2.5497

     occupation numbers 
     1.0000   1.0000   1.0000   1.0000   1.0000   1.0000   1.0000   1.0000

          k = 0.0828 0.5261-0.0000 (  4026 PWs)   bands (ev):

   -13.7765 -13.7215 -11.6757 -11.6324  -5.9737  -5.9581  -1.7208  -1.2658

     occupation numbers 
     1.0000   1.0000   1.0000   1.0000   1.0000   1.0000   1.0000   1.0000

          k = 0.1657 0.2870-0.0000 (  4032 PWs)   bands (ev):

   -16.7002 -16.6328  -6.8254  -6.8006  -5.4787  -5.4604  -4.6696  -4.0930

     occupation numbers 
     1.0000   1.0000   1.0000   1.0000   1.0000   1.0000   1.0000   1.0000

          k = 0.1657 0.3826-0.0000 (  4020 PWs)   bands (ev):

   -15.5845 -15.5220  -8.5672  -8.5351  -6.5458  -6.5245  -3.3888  -2.8498

     occupation numbers 
     1.0000   1.0000   1.0000   1.0000   1.0000   1.0000   1.0000   1.0000

          k = 0.1657 0.4783-0.0000 (  4002 PWs)   bands (ev):

   -14.1978 -14.1413 -10.4941 -10.4552  -7.1263  -7.1038  -1.9241  -1.4407

     occupation numbers 
     1.0000   1.0000   1.0000   1.0000   1.0000   1.0000   1.0000   1.0000

          k = 0.1657 0.5740-0.0000 (  4032 PWs)   bands (ev):

   -12.9483 -12.8960 -11.9467 -11.9037  -7.3133  -7.2906  -0.9976  -0.5693

     occupation numbers 
     1.0000   1.0000   1.0000   1.0000   1.0000   1.0000   1.0000   1.0000

          k = 0.2485 0.4305-0.0000 (  3996 PWs)   bands (ev):

   -14.3471 -14.2900  -9.6070  -9.5712  -8.0449  -8.0176  -2.0137  -1.5191

     occupation numbers 
     1.0000   1.0000   1.0000   1.0000   1.0000   1.0000   1.0000   1.0000

          k = 0.2485 0.5261-0.0000 (  4003 PWs)   bands (ev):

   -12.9121 -12.8613 -11.0414 -11.0002  -8.7584  -8.7287  -0.5896  -0.1525

     occupation numbers 
     1.0000   1.0000   1.0000   1.0000   1.0000   1.0000   1.0000   1.0000

          k = 0.3314 0.5740-0.0000 (  3942 PWs)   bands (ev):

   -11.6828 -11.6828 -11.6374 -11.6374  -9.6678  -9.6367   0.7953   0.7953

     occupation numbers 
     1.0000   1.0000   1.0000   1.0000   1.0000   1.0000   1.0000   1.0000

     the Fermi energy is     0.9207 ev

!    total energy              =     -48.17724447 Ry
     estimated scf accuracy    <          3.6E-09 Ry
     smearing contrib. (-TS)   =       0.00004531 Ry
     internal energy E=F+TS    =     -48.17728978 Ry

     The total energy is F=E-TS. E is the sum of the following terms:
     one-electron contribution =    -257.53625599 Ry
     hartree contribution      =     133.34994981 Ry
     xc contribution           =     -17.18065162 Ry
     ewald contribution        =      93.18966802 Ry

     convergence has been achieved in  13 iterations

     Forces acting on atoms (cartesian axes, Ry/au):

     atom    1 type  1   force =    -0.00000000    0.00000000   -0.00111410
     atom    2 type  1   force =    -0.00000000   -0.00000000   -0.00111410
     atom    3 type  1   force =     0.00000000   -0.00000000    0.00111410
     atom    4 type  1   force =     0.00000000   -0.00000000    0.00111410
     The non-local contrib.  to forces
     atom    1 type  1   force =    -0.00000000    0.00000000   -0.00115096
     atom    2 type  1   force =    -0.00000000    0.00000000   -0.00115096
     atom    3 type  1   force =    -0.00000000   -0.00000000    0.00115096
     atom    4 type  1   force =     0.00000000    0.00000000    0.00115096
     The ionic contribution  to forces
     atom    1 type  1   force =    -0.00000001    0.00000000  -10.74255649
     atom    2 type  1   force =     0.00000001   -0.00000000  -10.74255649
     atom    3 type  1   force =    -0.00000001    0.00000000   10.74255649
     atom    4 type  1   force =     0.00000001   -0.00000000   10.74255649
     The local contribution  to forces
     atom    1 type  1   force =    -0.00000000   -0.00000000   10.74266617
     atom    2 type  1   force =     0.00000001   -0.00000000   10.74266617
     atom    3 type  1   force =     0.00000000   -0.00000000  -10.74266617
     atom    4 type  1   force =     0.00000001   -0.00000000  -10.74266617
     The core correction contribution to forces
     atom    1 type  1   force =     0.00000000   -0.00000000    0.00005683
     atom    2 type  1   force =    -0.00000000    0.00000000    0.00005683
     atom    3 type  1   force =     0.00000000   -0.00000000   -0.00005683
     atom    4 type  1   force =    -0.00000000    0.00000000   -0.00005683
     The Hubbard contrib.    to forces
     atom    1 type  1   force =     0.00000000    0.00000000    0.00000000
     atom    2 type  1   force =     0.00000000    0.00000000    0.00000000
     atom    3 type  1   force =     0.00000000    0.00000000    0.00000000
     atom    4 type  1   force =     0.00000000    0.00000000    0.00000000
     The SCF correction term to forces
     atom    1 type  1   force =     0.00000000    0.00000000   -0.00012965
     atom    2 type  1   force =     0.00000000   -0.00000000   -0.00012965
     atom    3 type  1   force =    -0.00000000   -0.00000000    0.00012965
     atom    4 type  1   force =     0.00000000   -0.00000000    0.00012965

     Total force =     0.002228     Total SCF correction =     0.000259
     SCF correction compared to forces is large: reduce conv_thr to get better values


     Computing stress (Cartesian axis) and pressure

          total   stress  (Ry/bohr**3)                   (kbar)     P=       -9.30
  -0.00003791  -0.00000000  -0.00000000           -5.58       -0.00       -0.00
  -0.00000000  -0.00003791   0.00000000           -0.00       -5.58        0.00
  -0.00000000   0.00000000  -0.00011382           -0.00        0.00      -16.74

     kinetic stress (kbar)   6187.80     -0.00      0.00
                               -0.00   6187.80      0.00
                                0.00      0.00   6829.76

     local   stress (kbar) -79721.41      0.00     -0.00
                                0.00 -79721.41     -0.00
                               -0.00     -0.00  81592.37

     nonloc. stress (kbar)   -638.66     -0.00     -0.00
                               -0.00   -638.66      0.00
                               -0.00      0.00   -536.44

     hartree stress (kbar)  37635.95      0.00      0.00
                                0.00  37635.95     -0.00
                                0.00     -0.00 -37163.46

     exc-cor stress (kbar)   -492.27     -0.00     -0.00
                               -0.00   -492.27      0.00
                               -0.00      0.00   -549.92

     corecor stress (kbar)   -932.30      0.00      0.00
                                0.00   -932.30     -0.00
                                0.00     -0.00   -909.94

     ewald   stress (kbar)  37955.31     -0.00      0.00
                               -0.00  37955.31     -0.00
                                0.00     -0.00 -49279.10

     hubbard stress (kbar)      0.00      0.00      0.00
                                0.00      0.00      0.00
                                0.00      0.00      0.00

     DFT-D   stress (kbar)      0.00      0.00      0.00
                                0.00      0.00      0.00
                                0.00      0.00      0.00

     XDM     stress (kbar)      0.00      0.00      0.00
                                0.00      0.00      0.00
                                0.00      0.00      0.00

     dft-nl  stress (kbar)      0.00      0.00      0.00
                                0.00      0.00      0.00
                                0.00      0.00      0.00

     TS-vdW  stress (kbar)      0.00      0.00      0.00
                                0.00      0.00      0.00
                                0.00      0.00      0.00


     Energy error            =      2.4E-04
     Gradient error          =      1.1E-03
     Cell gradient error     =      1.1E-04


     number of scf cycles    =   3
     number of bfgs steps    =   2

     enthalpy old            =     -48.1770016997 Ry
     enthalpy new            =     -48.1772444735 Ry

     CASE: enthalpy_new < enthalpy_old


     WARNING: bfgs curvature condition failed, Theta= 0.962
     new trust radius        =       0.0211429752 bohr
     new conv_thr            =       0.0000000111 Ry

     new unit-cell volume =    512.64176 a.u.^3 (    75.96567 Ang^3 )
     density =      1.05020 g/cm^3

CELL_PARAMETERS (alat=  4.62030000)
   1.006176326   0.000000000   0.000000000
  -0.503088163   0.871374259   0.000000000
  -0.000000000   0.000000000   5.928224337

ATOMIC_POSITIONS (crystal)
C            -0.0000000000       -0.0000000000       -0.0001358743
C             0.3333333330        0.6666666670       -0.0001358743
C             0.0000000000        0.0000000000        0.2501358743
C             0.3333333330        0.6666666670        0.2501358743



     Writing output data file ./tmp/graphene.save/
     NEW-OLD atomic charge density approx. for the potential

     negative rho (up, down):  1.761E-07 0.000E+00
     extrapolated charge   15.93409, renormalised to   16.00000

     total cpu time spent up to now is       73.1 secs

     Self-consistent Calculation

     iteration #  1     ecut=    60.00 Ry     beta= 0.70
     Davidson diagonalization with overlap
     ethr =  1.00E-06,  avg # of iterations =  5.4

     total cpu time spent up to now is       76.0 secs

     total energy              =     -48.17439607 Ry
     estimated scf accuracy    <       0.00221351 Ry

     iteration #  2     ecut=    60.00 Ry     beta= 0.70
     Davidson diagonalization with overlap
     ethr =  1.38E-05,  avg # of iterations =  3.8

     total cpu time spent up to now is       78.6 secs

     total energy              =     -48.17697290 Ry
     estimated scf accuracy    <       0.00960889 Ry

     iteration #  3     ecut=    60.00 Ry     beta= 0.70
     Davidson diagonalization with overlap
     ethr =  1.38E-05,  avg # of iterations =  2.1

     total cpu time spent up to now is       80.6 secs

     total energy              =     -48.17748238 Ry
     estimated scf accuracy    <       0.00134795 Ry

     iteration #  4     ecut=    60.00 Ry     beta= 0.70
     Davidson diagonalization with overlap
     ethr =  8.42E-06,  avg # of iterations =  2.0

     total cpu time spent up to now is       82.4 secs

     total energy              =     -48.17745716 Ry
     estimated scf accuracy    <       0.00038437 Ry

     iteration #  5     ecut=    60.00 Ry     beta= 0.70
     Davidson diagonalization with overlap
     ethr =  2.40E-06,  avg # of iterations =  2.4

     total cpu time spent up to now is       84.1 secs

     total energy              =     -48.17750344 Ry
     estimated scf accuracy    <       0.00005511 Ry

     iteration #  6     ecut=    60.00 Ry     beta= 0.70
     Davidson diagonalization with overlap
     ethr =  3.44E-07,  avg # of iterations =  3.3

     total cpu time spent up to now is       86.1 secs

     total energy              =     -48.17749676 Ry
     estimated scf accuracy    <       0.00002730 Ry

     iteration #  7     ecut=    60.00 Ry     beta= 0.70
     Davidson diagonalization with overlap
     ethr =  1.71E-07,  avg # of iterations =  2.3

     total cpu time spent up to now is       88.0 secs

     total energy              =     -48.17750143 Ry
     estimated scf accuracy    <       0.00000966 Ry

     iteration #  8     ecut=    60.00 Ry     beta= 0.70
     Davidson diagonalization with overlap
     ethr =  6.04E-08,  avg # of iterations =  2.2

     total cpu time spent up to now is       90.1 secs

     total energy              =     -48.17750387 Ry
     estimated scf accuracy    <       0.00000291 Ry

     iteration #  9     ecut=    60.00 Ry     beta= 0.70
     Davidson diagonalization with overlap
     ethr =  1.82E-08,  avg # of iterations =  1.1

     total cpu time spent up to now is       91.7 secs

     total energy              =     -48.17750407 Ry
     estimated scf accuracy    <       0.00000096 Ry

     iteration # 10     ecut=    60.00 Ry     beta= 0.70
     Davidson diagonalization with overlap
     ethr =  6.00E-09,  avg # of iterations =  1.0

     total cpu time spent up to now is       93.1 secs

     total energy              =     -48.17750363 Ry
     estimated scf accuracy    <       0.00000108 Ry

     iteration # 11     ecut=    60.00 Ry     beta= 0.70
     Davidson diagonalization with overlap
     ethr =  6.00E-09,  avg # of iterations =  2.0

     total cpu time spent up to now is       95.0 secs

     total energy              =     -48.17750373 Ry
     estimated scf accuracy    <       0.00000006 Ry

     iteration # 12     ecut=    60.00 Ry     beta= 0.70
     Davidson diagonalization with overlap
     ethr =  3.71E-10,  avg # of iterations =  3.5

     total cpu time spent up to now is       97.3 secs

     total energy              =     -48.17750377 Ry
     estimated scf accuracy    <       0.00000002 Ry

     iteration # 13     ecut=    60.00 Ry     beta= 0.70
     Davidson diagonalization with overlap
     ethr =  1.24E-10,  avg # of iterations =  1.6

     total cpu time spent up to now is       98.8 secs

     total energy              =     -48.17750376 Ry
     estimated scf accuracy    <       0.00000002 Ry

     iteration # 14     ecut=    60.00 Ry     beta= 0.70
     Davidson diagonalization with overlap
     ethr =  1.17E-10,  avg # of iterations =  1.0

     total cpu time spent up to now is      100.3 secs

     End of self-consistent calculation

          k = 0.0000 0.0000 0.0000 (  4005 PWs)   bands (ev):

   -18.6337 -18.5541  -6.9858  -6.3386  -2.0365  -2.0365  -2.0319  -2.0319

     occupation numbers 
     1.0000   1.0000   1.0000   1.0000   1.0000   1.0000   1.0000   1.0000

          k =-0.0000 0.0956-0.0000 (  4020 PWs)   bands (ev):

   -18.4688 -18.3899  -6.7862  -6.1435  -2.6953  -2.6859  -2.3819  -2.3740

     occupation numbers 
     1.0000   1.0000   1.0000   1.0000   1.0000   1.0000   1.0000   1.0000

          k =-0.0000 0.1913-0.0000 (  4038 PWs)   bands (ev):

   -17.9756 -17.8993  -6.1934  -5.5636  -4.3497  -4.3323  -3.1858  -3.1760

     occupation numbers 
     1.0000   1.0000   1.0000   1.0000   1.0000   1.0000   1.0000   1.0000

          k =-0.0000 0.2869-0.0000 (  4016 PWs)   bands (ev):

   -17.1599 -17.0874  -6.4656  -6.4392  -5.2245  -4.6186  -4.0778  -4.0661

     occupation numbers 
     1.0000   1.0000   1.0000   1.0000   1.0000   1.0000   1.0000   1.0000

          k =-0.0000 0.3825-0.0000 (  4040 PWs)   bands (ev):

   -16.0336 -15.9670  -8.6862  -8.6527  -4.8208  -4.8093  -3.9304  -3.3616

     occupation numbers 
     1.0000   1.0000   1.0000   1.0000   1.0000   1.0000   1.0000   1.0000

          k =-0.0000 0.4782-0.0000 (  4028 PWs)   bands (ev):

   -14.6278 -14.5674 -10.8031 -10.7609  -5.3001  -5.2873  -2.4681  -1.9611

     occupation numbers 
     1.0000   1.0000   1.0000   1.0000   1.0000   1.0000   1.0000   1.0000

          k = 0.0000-0.5738 0.0000 (  4024 PWs)   bands (ev):

   -13.3497 -13.2926 -12.3268 -12.2795  -5.4650  -5.4505  -1.5882  -1.1412

     occupation numbers 
     1.0000   1.0000   1.0000   1.0000   1.0000   1.0000   1.0000   1.0000

          k = 0.0828 0.1435-0.0000 (  4045 PWs)   bands (ev):

   -18.1398 -18.0626  -6.3902  -5.7562  -3.7404  -3.7250  -3.0689  -3.0589

     occupation numbers 
     1.0000   1.0000   1.0000   1.0000   1.0000   1.0000   1.0000   1.0000

          k = 0.0828 0.2391-0.0000 (  4025 PWs)   bands (ev):

   -17.4852 -17.4113  -5.6080  -5.4645  -5.4424  -4.9924  -4.0795  -4.0662

     occupation numbers 
     1.0000   1.0000   1.0000   1.0000   1.0000   1.0000   1.0000   1.0000

          k = 0.0828 0.3347-0.0000 (  4029 PWs)   bands (ev):

   -16.5142 -16.4450  -7.5546  -7.5249  -4.9767  -4.9617  -4.4700  -3.8849

     occupation numbers 
     1.0000   1.0000   1.0000   1.0000   1.0000   1.0000   1.0000   1.0000

          k = 0.0828 0.4304-0.0000 (  4009 PWs)   bands (ev):

   -15.2450 -15.1818  -9.6939  -9.6560  -5.6187  -5.6026  -3.0581  -2.5204

     occupation numbers 
     1.0000   1.0000   1.0000   1.0000   1.0000   1.0000   1.0000   1.0000

          k = 0.0828 0.5260-0.0000 (  4026 PWs)   bands (ev):

   -13.7535 -13.6963 -11.6521 -11.6071  -5.9513  -5.9350  -1.7057  -1.2383

     occupation numbers 
     1.0000   1.0000   1.0000   1.0000   1.0000   1.0000   1.0000   1.0000

          k = 0.1656 0.2869-0.0000 (  4032 PWs)   bands (ev):

   -16.6755 -16.6055  -6.8046  -6.7787  -5.4564  -5.4374  -4.6529  -4.0620

     occupation numbers 
     1.0000   1.0000   1.0000   1.0000   1.0000   1.0000   1.0000   1.0000

          k = 0.1656 0.3825-0.0000 (  4020 PWs)   bands (ev):

   -15.5603 -15.4954  -8.5457  -8.5122  -6.5230  -6.5009  -3.3729  -2.8202

     occupation numbers 
     1.0000   1.0000   1.0000   1.0000   1.0000   1.0000   1.0000   1.0000

          k = 0.1656 0.4782-0.0000 (  4002 PWs)   bands (ev):

   -14.1743 -14.1156 -10.4715 -10.4310  -7.1034  -7.0799  -1.9089  -1.4127

     occupation numbers 
     1.0000   1.0000   1.0000   1.0000   1.0000   1.0000   1.0000   1.0000

          k = 0.1656 0.5738-0.0000 (  4032 PWs)   bands (ev):

   -12.9263 -12.8719 -11.9225 -11.8778  -7.2904  -7.2667  -0.9828  -0.5426

     occupation numbers 
     1.0000   1.0000   1.0000   1.0000   1.0000   1.0000   1.0000   1.0000

          k = 0.2485 0.4304-0.0000 (  3996 PWs)   bands (ev):

   -14.3235 -14.2642  -9.5856  -9.5483  -8.0210  -7.9926  -1.9985  -1.4909

     occupation numbers 
     1.0000   1.0000   1.0000   1.0000   1.0000   1.0000   1.0000   1.0000

          k = 0.2485 0.5260-0.0000 (  4003 PWs)   bands (ev):

   -12.8895 -12.8366 -11.0190 -10.9761  -8.7342  -8.7033  -0.5752  -0.1259

     occupation numbers 
     1.0000   1.0000   1.0000   1.0000   1.0000   1.0000   1.0000   1.0000

          k = 0.3313 0.5738-0.0000 (  3942 PWs)   bands (ev):

   -11.6610 -11.6610 -11.6137 -11.6137  -9.6421  -9.6096   0.8089   0.8089

     occupation numbers 
     1.0000   1.0000   1.0000   1.0000   1.0000   1.0000   1.0000   1.0000

     the Fermi energy is     0.9343 ev

!    total energy              =     -48.17750376 Ry
     estimated scf accuracy    <          8.4E-09 Ry
     smearing contrib. (-TS)   =       0.00004531 Ry
     internal energy E=F+TS    =     -48.17754906 Ry

     The total energy is F=E-TS. E is the sum of the following terms:
     one-electron contribution =    -255.67722914 Ry
     hartree contribution      =     132.43276807 Ry
     xc contribution           =     -17.17840786 Ry
     ewald contribution        =      92.24531987 Ry

     convergence has been achieved in  14 iterations

     Forces acting on atoms (cartesian axes, Ry/au):

     atom    1 type  1   force =     0.00000000    0.00000000   -0.00118672
     atom    2 type  1   force =     0.00000000   -0.00000000   -0.00118672
     atom    3 type  1   force =    -0.00000000   -0.00000000    0.00118672
     atom    4 type  1   force =     0.00000000    0.00000000    0.00118672
     The non-local contrib.  to forces
     atom    1 type  1   force =    -0.00000000   -0.00000000   -0.00119614
     atom    2 type  1   force =     0.00000000    0.00000000   -0.00119614
     atom    3 type  1   force =    -0.00000000   -0.00000000    0.00119614
     atom    4 type  1   force =     0.00000000    0.00000000    0.00119614
     The ionic contribution  to forces
     atom    1 type  1   force =    -0.00000001    0.00000000  -10.73168326
     atom    2 type  1   force =     0.00000001   -0.00000000  -10.73168326
     atom    3 type  1   force =    -0.00000001    0.00000000   10.73168326
     atom    4 type  1   force =     0.00000001   -0.00000000   10.73168326
     The local contribution  to forces
     atom    1 type  1   force =     0.00000000   -0.00000000   10.73183115
     atom    2 type  1   force =     0.00000001   -0.00000000   10.73183115
     atom    3 type  1   force =     0.00000000   -0.00000000  -10.73183115
     atom    4 type  1   force =     0.00000001   -0.00000000  -10.73183115
     The core correction contribution to forces
     atom    1 type  1   force =     0.00000000   -0.00000000    0.00006018
     atom    2 type  1   force =    -0.00000000    0.00000000    0.00006018
     atom    3 type  1   force =     0.00000000   -0.00000000   -0.00006018
     atom    4 type  1   force =    -0.00000000    0.00000000   -0.00006018
     The Hubbard contrib.    to forces
     atom    1 type  1   force =     0.00000000    0.00000000    0.00000000
     atom    2 type  1   force =     0.00000000    0.00000000    0.00000000
     atom    3 type  1   force =     0.00000000    0.00000000    0.00000000
     atom    4 type  1   force =     0.00000000    0.00000000    0.00000000
     The SCF correction term to forces
     atom    1 type  1   force =    -0.00000000   -0.00000000   -0.00019865
     atom    2 type  1   force =     0.00000000   -0.00000000   -0.00019865
     atom    3 type  1   force =    -0.00000000   -0.00000000    0.00019865
     atom    4 type  1   force =     0.00000000   -0.00000000    0.00019865

     Total force =     0.002373     Total SCF correction =     0.000397
     SCF correction compared to forces is large: reduce conv_thr to get better values


     Computing stress (Cartesian axis) and pressure

          total   stress  (Ry/bohr**3)                   (kbar)     P=       -9.98
  -0.00004843   0.00000000   0.00000000           -7.12        0.00        0.00
   0.00000000  -0.00004843  -0.00000000            0.00       -7.12       -0.00
  -0.00000000   0.00000000  -0.00010663           -0.00        0.00      -15.69

     kinetic stress (kbar)   6211.35     -0.00      0.00
                               -0.00   6211.35     -0.00
                               -0.00     -0.00   6857.38

     local   stress (kbar) -79512.41      0.00     -0.00
                                0.00 -79512.41     -0.00
                               -0.00     -0.00  81387.99

     nonloc. stress (kbar)   -640.80      0.00     -0.00
                                0.00   -640.80      0.00
                               -0.00      0.00   -538.08

     hartree stress (kbar)  37527.49     -0.00      0.00
                               -0.00  37527.49      0.00
                                0.00      0.00 -37052.75

     exc-cor stress (kbar)   -494.12     -0.00     -0.00
                               -0.00   -494.12     -0.00
                               -0.00     -0.00   -551.95

     corecor stress (kbar)   -936.08      0.00      0.00
                                0.00   -936.08     -0.00
                                0.00     -0.00   -913.64

     ewald   stress (kbar)  37837.44     -0.00     -0.00
                               -0.00  37837.44     -0.00
                               -0.00     -0.00 -49204.64

[...]
         2           C   tau(   2) = (  0.3333333  0.6666667 -0.1166033  )
         3           C   tau(   3) = ( -0.0000000 -0.0000000  0.3666033  )
         4           C   tau(   4) = (  0.3333333  0.6666667  0.3666033  )

     number of k points=    19  Marzari-Vanderbilt smearing, width (Ry)=  0.0100
                       cart. coord. in units 2pi/alat
        k(    1) = (   0.0000000   0.0000000   0.0000000), wk =   0.0138889
        k(    2) = (  -0.0000000   0.0956027   0.0000000), wk =   0.0833333
        k(    3) = (  -0.0000000   0.1912054   0.0000000), wk =   0.0833333
        k(    4) = (  -0.0000000   0.2868080   0.0000000), wk =   0.0833333
        k(    5) = (  -0.0000000   0.3824107   0.0000000), wk =   0.0833333
        k(    6) = (  -0.0000000   0.4780134   0.0000000), wk =   0.0833333
        k(    7) = (   0.0000000  -0.5736161  -0.0000000), wk =   0.0416667
        k(    8) = (   0.0827943   0.1434040   0.0000000), wk =   0.0833333
        k(    9) = (   0.0827943   0.2390067   0.0000000), wk =   0.1666667
        k(   10) = (   0.0827943   0.3346094   0.0000000), wk =   0.1666667
        k(   11) = (   0.0827943   0.4302121   0.0000000), wk =   0.1666667
        k(   12) = (   0.0827943   0.5258147   0.0000000), wk =   0.1666667
        k(   13) = (   0.1655887   0.2868080   0.0000000), wk =   0.0833333
        k(   14) = (   0.1655887   0.3824107   0.0000000), wk =   0.1666667
        k(   15) = (   0.1655887   0.4780134   0.0000000), wk =   0.1666667
        k(   16) = (   0.1655887   0.5736161   0.0000000), wk =   0.0833333
        k(   17) = (   0.2483830   0.4302121   0.0000000), wk =   0.0833333
        k(   18) = (   0.2483830   0.5258147   0.0000000), wk =   0.1666667
        k(   19) = (   0.3311774   0.5736161   0.0000000), wk =   0.0277778

                       cryst. coord.
        k(    1) = (   0.0000000   0.0000000   0.0000000), wk =   0.0138889
        k(    2) = (  -0.0000000   0.0833333  -0.0000000), wk =   0.0833333
        k(    3) = (  -0.0000000   0.1666667  -0.0000000), wk =   0.0833333
        k(    4) = (  -0.0000000   0.2500000   0.0000000), wk =   0.0833333
        k(    5) = (  -0.0000000   0.3333333  -0.0000000), wk =   0.0833333
        k(    6) = (  -0.0000000   0.4166667   0.0000000), wk =   0.0833333
        k(    7) = (   0.0000000  -0.5000000  -0.0000000), wk =   0.0416667
        k(    8) = (   0.0833333   0.0833333   0.0000000), wk =   0.0833333
        k(    9) = (   0.0833333   0.1666667   0.0000000), wk =   0.1666667
        k(   10) = (   0.0833333   0.2500000   0.0000000), wk =   0.1666667
        k(   11) = (   0.0833333   0.3333333   0.0000000), wk =   0.1666667
        k(   12) = (   0.0833333   0.4166667   0.0000000), wk =   0.1666667
        k(   13) = (   0.1666667   0.1666667   0.0000000), wk =   0.0833333
        k(   14) = (   0.1666667   0.2500000   0.0000000), wk =   0.1666667
        k(   15) = (   0.1666667   0.3333333   0.0000000), wk =   0.1666667
        k(   16) = (   0.1666667   0.4166667   0.0000000), wk =   0.0833333
        k(   17) = (   0.2500000   0.2500000   0.0000000), wk =   0.0833333
        k(   18) = (   0.2500000   0.3333333   0.0000000), wk =   0.1666667
        k(   19) = (   0.3333333   0.3333333   0.0000000), wk =   0.0277778

     Dense  grid:    20101 G-vectors     FFT dimensions: (  24,  24,  96)

     Dynamical RAM for                 wfc:       0.31 MB

     Dynamical RAM for     wfc (w. buffer):       6.12 MB

     Dynamical RAM for           str. fact:       0.31 MB

     Dynamical RAM for           local pot:       0.25 MB

     Dynamical RAM for          nlocal pot:       1.22 MB

     Dynamical RAM for                qrad:       0.71 MB

     Dynamical RAM for          rho,v,vnew:       2.19 MB

     Dynamical RAM for               rhoin:       0.73 MB

     Dynamical RAM for            rho*nmix:       4.91 MB

     Dynamical RAM for           G-vectors:       1.30 MB

     Dynamical RAM for          h,s,v(r/c):       0.01 MB

     Dynamical RAM for          <psi|beta>:       0.00 MB

     Dynamical RAM for                 psi:       0.61 MB

     Dynamical RAM for                hpsi:       0.61 MB

     Dynamical RAM for      wfcinit/wfcrot:       1.23 MB

     Estimated static dynamical RAM per process >      20.46 MB

     Estimated max dynamical RAM per process >      21.70 MB

     Initial potential from superposition of free atoms

     starting charge   15.99982, renormalised to   16.00000
     Starting wfcs are   16 randomized atomic wfcs

     total cpu time spent up to now is      790.4 secs

     Self-consistent Calculation

     iteration #  1     ecut=    60.00 Ry     beta= 0.70
     Davidson diagonalization with overlap
     ethr =  1.00E-06,  avg # of iterations = 10.4

     total cpu time spent up to now is      794.1 secs

     total energy              =     -48.11537359 Ry
     estimated scf accuracy    <       0.40278323 Ry

     iteration #  2     ecut=    60.00 Ry     beta= 0.70
     Davidson diagonalization with overlap
     ethr =  2.52E-03,  avg # of iterations =  2.0

     total cpu time spent up to now is      795.3 secs

     total energy              =     -48.17754147 Ry
     estimated scf accuracy    <       0.00442744 Ry

     iteration #  3     ecut=    60.00 Ry     beta= 0.70
     Davidson diagonalization with overlap
     ethr =  2.77E-05,  avg # of iterations =  1.8

     total cpu time spent up to now is      796.3 secs

     total energy              =     -48.17805830 Ry
     estimated scf accuracy    <       0.00042448 Ry

     iteration #  4     ecut=    60.00 Ry     beta= 0.70
     Davidson diagonalization with overlap
     ethr =  2.65E-06,  avg # of iterations =  2.4

     total cpu time spent up to now is      797.5 secs

     total energy              =     -48.17815146 Ry
     estimated scf accuracy    <       0.00001057 Ry

     iteration #  5     ecut=    60.00 Ry     beta= 0.70
     Davidson diagonalization with overlap
     c_bands:  2 eigenvalues not converged
     ethr =  6.61E-08,  avg # of iterations =  5.5

     total cpu time spent up to now is      799.3 secs

     total energy              =     -48.17816940 Ry
     estimated scf accuracy    <       0.00000129 Ry

     iteration #  6     ecut=    60.00 Ry     beta= 0.70
     Davidson diagonalization with overlap
     c_bands:  2 eigenvalues not converged
     ethr =  8.03E-09,  avg # of iterations =  4.0

     total cpu time spent up to now is      800.7 secs

     total energy              =     -48.17817022 Ry
     estimated scf accuracy    <       0.00000017 Ry

     iteration #  7     ecut=    60.00 Ry     beta= 0.70
     Davidson diagonalization with overlap
     ethr =  1.09E-09,  avg # of iterations =  3.6

     total cpu time spent up to now is      802.1 secs

     End of self-consistent calculation

          k = 0.0000 0.0000 0.0000 (  2515 PWs)   bands (ev):

   -15.4171 -15.3958  -3.6428  -3.3104   1.1403   1.1403   1.1427   1.1427

     occupation numbers 
     1.0000   1.0000   1.0000   1.0000   1.0000   1.0000   1.0000   1.0000

          k =-0.0000 0.0956 0.0000 (  2498 PWs)   bands (ev):

   -15.2522 -15.2313  -3.4438  -3.1140   0.4855   0.4874   0.7987   0.7999

     occupation numbers 
     1.0000   1.0000   1.0000   1.0000   1.0000   1.0000   1.0000   1.0000

          k =-0.0000 0.1912 0.0000 (  2510 PWs)   bands (ev):

   -14.7603 -14.7403  -2.8532  -2.5327  -1.1636  -1.1598  -0.0036  -0.0013

     occupation numbers 
     1.0000   1.0000   1.0000   1.0000   1.0000   1.0000   1.0000   1.0000

          k =-0.0000 0.2868 0.0000 (  2516 PWs)   bands (ev):

   -13.9463 -13.9278  -3.2759  -3.2705  -1.8889  -1.5843  -0.8940  -0.8925

     occupation numbers 
     1.0000   1.0000   1.0000   1.0000   1.0000   1.0000   1.0000   1.0000

          k =-0.0000 0.3824 0.0000 (  2510 PWs)   bands (ev):

   -12.8229 -12.8064  -5.4915  -5.4849  -1.6353  -1.6336  -0.5997  -0.3216

     occupation numbers 
     1.0000   1.0000   1.0000   1.0000   1.0000   1.0000   1.0000   1.0000

          k =-0.0000 0.4780 0.0000 (  2510 PWs)   bands (ev):

   -11.4206 -11.4058  -7.6042  -7.5942  -2.1143  -2.1120   0.8529   1.0875

     occupation numbers 
     1.0000   1.0000   1.0000   1.0000   1.0000   1.0000   1.0000   1.0000

          k = 0.0000-0.5736-0.0000 (  2496 PWs)   bands (ev):

   -10.1449 -10.1322  -9.1230  -9.1124  -2.2782  -2.2763   1.7242   1.9167

     occupation numbers 
     1.0000   1.0000   1.0000   1.0000   1.0000   1.0000   1.0000   1.0000

          k = 0.0828 0.1434 0.0000 (  2503 PWs)   bands (ev):

   -14.9239 -14.9038  -3.0490  -2.7252  -0.5551  -0.5531   0.1143   0.1161

     occupation numbers 
     1.0000   1.0000   1.0000   1.0000   1.0000   1.0000   1.0000   1.0000

          k = 0.0828 0.2390 0.0000 (  2514 PWs)   bands (ev):

   -14.2710 -14.2519  -2.2771  -2.2733  -2.2704  -1.9592  -0.8946  -0.8920

     occupation numbers 
     1.0000   1.0000   1.0000   1.0000   1.0000   1.0000   1.0000   1.0000

          k = 0.0828 0.3346 0.0000 (  2511 PWs)   bands (ev):

   -13.3023 -13.2849  -4.3622  -4.3564  -1.7901  -1.7877  -1.1373  -0.8469

     occupation numbers 
     1.0000   1.0000   1.0000   1.0000   1.0000   1.0000   1.0000   1.0000

          k = 0.0828 0.4302 0.0000 (  2507 PWs)   bands (ev):

   -12.0364 -12.0210  -6.4973  -6.4890  -2.4314  -2.4289   0.2670   0.5238

     occupation numbers 
     1.0000   1.0000   1.0000   1.0000   1.0000   1.0000   1.0000   1.0000

          k = 0.0828 0.5258 0.0000 (  2515 PWs)   bands (ev):

   -10.5481 -10.5346  -8.4513  -8.4408  -2.7638  -2.7609   1.6088   1.8150

     occupation numbers 
     1.0000   1.0000   1.0000   1.0000   1.0000   1.0000   1.0000   1.0000

          k = 0.1656 0.2868 0.0000 (  2506 PWs)   bands (ev):

   -13.4632 -13.4455  -3.6143  -3.6097  -2.2684  -2.2646  -1.3185  -1.0242

     occupation numbers 
     1.0000   1.0000   1.0000   1.0000   1.0000   1.0000   1.0000   1.0000

          k = 0.1656 0.3824 0.0000 (  2502 PWs)   bands (ev):

   -12.3506 -12.3344  -5.3520  -5.3447  -3.3327  -3.3281  -0.0447   0.2227

     occupation numbers 
     1.0000   1.0000   1.0000   1.0000   1.0000   1.0000   1.0000   1.0000

          k = 0.1656 0.4780 0.0000 (  2504 PWs)   bands (ev):

   -10.9678 -10.9541  -7.2734  -7.2649  -3.9129  -3.9084   1.4097   1.6379

     occupation numbers 
     1.0000   1.0000   1.0000   1.0000   1.0000   1.0000   1.0000   1.0000

          k = 0.1656 0.5736 0.0000 (  2508 PWs)   bands (ev):

    -9.7229  -9.7105  -8.7210  -8.7101  -4.0991  -4.0946   2.3275   2.5156

     occupation numbers 
     1.0000   1.0000   1.0000   1.0000   1.0000   1.0000   1.0000   1.0000

          k = 0.2484 0.4302 0.0000 (  2484 PWs)   bands (ev):

   -11.1164 -11.1022  -6.3901  -6.3824  -4.8267  -4.8203   1.3221   1.5583

     occupation numbers 
     1.0000   1.0000   1.0000   1.0000   1.0000   1.0000   1.0000   1.0000

          k = 0.2484 0.5258 0.0000 (  2495 PWs)   bands (ev):

    -9.6861  -9.6738  -7.8205  -7.8110  -5.5384  -5.5315   2.7357   2.9320

     occupation numbers 
     1.0000   1.0000   1.0000   1.0000   1.0000   1.0000   1.0000   1.0000

          k = 0.3312 0.5736 0.0000 (  2514 PWs)   bands (ev):

    -8.4623  -8.4623  -8.4515  -8.4515  -6.4449  -6.4370   4.1099   4.1099

     occupation numbers 
     1.0000   1.0000   1.0000   1.0000   1.0000   1.0000   1.0000   1.0000

     the Fermi energy is     4.2352 ev

!    total energy              =     -48.17817029 Ry
     estimated scf accuracy    <          4.6E-09 Ry
     smearing contrib. (-TS)   =       0.00004531 Ry
     internal energy E=F+TS    =     -48.17821560 Ry

     The total energy is F=E-TS. E is the sum of the following terms:
     one-electron contribution =     -38.98025699 Ry
     hartree contribution      =      25.95167315 Ry
     xc contribution           =     -17.17280707 Ry
     ewald contribution        =     -17.97682469 Ry

     convergence has been achieved in   7 iterations

     Forces acting on atoms (cartesian axes, Ry/au):

     atom    1 type  1   force =    -0.00000000   -0.00000000   -0.00000448
     atom    2 type  1   force =    -0.00000000   -0.00000000   -0.00000448
     atom    3 type  1   force =     0.00000000    0.00000000    0.00000448
     atom    4 type  1   force =     0.00000000   -0.00000000    0.00000448
     The non-local contrib.  to forces
     atom    1 type  1   force =     0.00000000    0.00000000   -0.00007010
     atom    2 type  1   force =     0.00000000   -0.00000000   -0.00007010
     atom    3 type  1   force =    -0.00000000    0.00000000    0.00007010
     atom    4 type  1   force =    -0.00000000   -0.00000000    0.00007010
     The ionic contribution  to forces
     atom    1 type  1   force =    -0.00000001    0.00000000   -0.72119467
     atom    2 type  1   force =     0.00000001   -0.00000000   -0.72119467
     atom    3 type  1   force =    -0.00000001    0.00000000    0.72119467
     atom    4 type  1   force =     0.00000001   -0.00000000    0.72119467
     The local contribution  to forces
     atom    1 type  1   force =    -0.00000000   -0.00000000    0.72115976
     atom    2 type  1   force =     0.00000001   -0.00000000    0.72115976
     atom    3 type  1   force =     0.00000000   -0.00000000   -0.72115976
     atom    4 type  1   force =     0.00000001   -0.00000000   -0.72115976
     The core correction contribution to forces
     atom    1 type  1   force =     0.00000000   -0.00000000    0.00000506
     atom    2 type  1   force =    -0.00000000    0.00000000    0.00000506
     atom    3 type  1   force =     0.00000000   -0.00000000   -0.00000506
     atom    4 type  1   force =    -0.00000000    0.00000000   -0.00000506
     The Hubbard contrib.    to forces
     atom    1 type  1   force =     0.00000000    0.00000000    0.00000000
     atom    2 type  1   force =     0.00000000    0.00000000    0.00000000
     atom    3 type  1   force =     0.00000000    0.00000000    0.00000000
     atom    4 type  1   force =     0.00000000    0.00000000    0.00000000
     The SCF correction term to forces
     atom    1 type  1   force =     0.00000000   -0.00000000    0.00009546
     atom    2 type  1   force =    -0.00000000    0.00000000    0.00009546
     atom    3 type  1   force =     0.00000000   -0.00000000   -0.00009546
     atom    4 type  1   force =    -0.00000000    0.00000000   -0.00009546

     Total force =     0.000009     Total SCF correction =     0.000191
     SCF correction compared to forces is large: reduce conv_thr to get better values


     Computing stress (Cartesian axis) and pressure

          total   stress  (Ry/bohr**3)                   (kbar)     P=      -19.57
  -0.00008465   0.00000000  -0.00000000          -12.45        0.00       -0.00
   0.00000000  -0.00008465  -0.00000000            0.00      -12.45       -0.00
  -0.00000000  -0.00000000  -0.00022973           -0.00       -0.00      -33.79

     kinetic stress (kbar)   9965.59     -0.00      0.00
                               -0.00   9965.59      0.00
                               -0.00     -0.00  10998.85

     local   stress (kbar) -27809.30      0.00     -0.00
                                0.00 -27809.30      0.00
                               -0.00      0.00  30816.84

     nonloc. stress (kbar)  -1027.06      0.00     -0.00
                                0.00  -1027.06     -0.00
                               -0.00     -0.00   -864.42

     hartree stress (kbar)  11191.53      0.00     -0.00
                                0.00  11191.53      0.00
                               -0.00      0.00 -10430.48

     exc-cor stress (kbar)   -792.00     -0.00     -0.00
                               -0.00   -792.00      0.00
                               -0.00      0.00   -886.47

     corecor stress (kbar)  -1502.26      0.00     -0.00
                                0.00  -1502.26      0.00
                               -0.00      0.00  -1466.42

     ewald   stress (kbar)   9961.05     -0.00     -0.00
                               -0.00   9961.05      0.00
                               -0.00      0.00 -28201.69

     hubbard stress (kbar)      0.00      0.00      0.00
                                0.00      0.00      0.00
                                0.00      0.00      0.00

     DFT-D   stress (kbar)      0.00      0.00      0.00
                                0.00      0.00      0.00
                                0.00      0.00      0.00

     XDM     stress (kbar)      0.00      0.00      0.00
                                0.00      0.00      0.00
                                0.00      0.00      0.00

     dft-nl  stress (kbar)      0.00      0.00      0.00
                                0.00      0.00      0.00
                                0.00      0.00      0.00

     TS-vdW  stress (kbar)      0.00      0.00      0.00
                                0.00      0.00      0.00
                                0.00      0.00      0.00



     Writing output data file ./tmp/graphene.save/

     init_run     :      5.24s CPU      3.26s WALL (       2 calls)
     electrons    :   1591.56s CPU    657.24s WALL (      29 calls)
     update_pot   :     49.28s CPU     46.50s WALL (      27 calls)
     forces       :     42.30s CPU     32.83s WALL (      29 calls)
     stress       :     87.53s CPU     63.45s WALL (      29 calls)

     Called by init_run:
     wfcinit      :      3.07s CPU      1.17s WALL (       2 calls)
     wfcinit:atom :      0.08s CPU      0.03s WALL (      38 calls)
     wfcinit:wfcr :      2.54s CPU      1.00s WALL (      38 calls)
     potinit      :      0.63s CPU      0.63s WALL (       2 calls)
     hinit0       :      1.48s CPU      1.42s WALL (       2 calls)

     Called by electrons:
     c_bands      :   1461.38s CPU    574.36s WALL (     297 calls)
     sum_band     :    115.74s CPU     69.12s WALL (     297 calls)
     v_of_rho     :     12.90s CPU     12.37s WALL (     326 calls)
     v_h          :      0.59s CPU      0.57s WALL (     326 calls)
     v_xc         :     17.05s CPU     14.25s WALL (     384 calls)
     mix_rho      :      1.82s CPU      1.75s WALL (     297 calls)

     Called by c_bands:
     init_us_2    :     44.57s CPU     17.82s WALL (   12426 calls)
     cegterg      :   1336.53s CPU    526.66s WALL (    5643 calls)

     Called by sum_band:
     sum_band:wei :      0.21s CPU      0.06s WALL (     297 calls)
     sum_band:loo :    112.97s CPU     66.54s WALL (     297 calls)
     sum_band:buf :      0.85s CPU      0.50s WALL (    5643 calls)
     sum_band:ini :     12.62s CPU      7.50s WALL (    5643 calls)

     Called by *egterg:
     cdiaghg      :     13.41s CPU      3.77s WALL (   23261 calls)
     cegterg:over :     27.33s CPU      8.66s WALL (   18131 calls)
     cegterg:upda :     18.95s CPU      5.54s WALL (   18131 calls)
     cegterg:last :     22.99s CPU      6.80s WALL (   15385 calls)
     h_psi        :   1216.58s CPU    492.32s WALL (   23812 calls)
     g_psi        :     19.82s CPU      4.97s WALL (   18131 calls)

     Called by h_psi:
     h_psi:calbec :     35.94s CPU     21.30s WALL (   23812 calls)
     vloc_psi     :   1152.97s CPU    462.04s WALL (   23812 calls)
     add_vuspsi   :     19.79s CPU      6.70s WALL (   23812 calls)

     General routines
     calbec       :     38.53s CPU     22.41s WALL (   26567 calls)
     fft          :      6.52s CPU      5.51s WALL (    3983 calls)
     ffts         :      0.45s CPU      0.46s WALL (     297 calls)
     fftw         :   1054.88s CPU    442.90s WALL (  345982 calls)

     Parallel routines

     PWSCF        :  29m37.73s CPU  13m24.21s WALL


   This run was terminated on:  12:59:55  15Feb2024            

=------------------------------------------------------------------------------=
   JOB DONE.
=------------------------------------------------------------------------------=
