
     Program PWSCF v.7.2 starts on 18Apr2024 at 10:46:57 

     This program is part of the open-source Quantum ESPRESSO suite
     for quantum simulation of materials; please cite
         "P. Giannozzi et al., J. Phys.:Condens. Matter 21 395502 (2009);
         "P. Giannozzi et al., J. Phys.:Condens. Matter 29 465901 (2017);
         "P. Giannozzi et al., J. Chem. Phys. 152 154105 (2020);
          URL http://www.quantum-espresso.org", 
     in publications or presentations arising from this work. More details at
     http://www.quantum-espresso.org/quote

     Parallel version (MPI & OpenMP), running on       8 processor cores
     Number of MPI processes:                 8
     Threads/MPI process:                     1

     MPI processes distributed on     1 nodes
     0 MiB available memory on the printing compute node when the environment starts

     Waiting for input...
     Reading input from standard input

     Current dimensions of program PWSCF are:
     Max number of different atomic species (ntypx) = 10
     Max number of k-points (npk) =  40000
     Max angular momentum in pseudopotentials (lmaxx) =  4

     IMPORTANT: XC functional enforced from input :
     Exchange-correlation= VDW-DF2-B86R
                           (   1   4  26   0   2   0   0)
     Any further DFT definition will be discarded
     Please, verify this is what you really want


     R & G space division:  proc/nbgrp/npool/nimage =       8
     Subspace diagonalization in iterative solution of the eigenvalue problem:
     a serial algorithm will be used


     Parallelization info
     --------------------
     sticks:   dense  smooth     PW     G-vecs:    dense   smooth      PW
     Min         160     160     45                37324    37324    5575
     Max         161     161     46                37357    37357    5606
     Sum        1285    1285    361               298751   298751   44717

     Using Slab Decomposition



     bravais-lattice index     =            4
     lattice parameter (alat)  =       5.9926  a.u.
     unit-cell volume          =    1490.9535 (a.u.)^3
     number of atoms/cell      =            6
     number of atomic types    =            2
     number of electrons       =        52.00
     number of Kohn-Sham states=           26
     kinetic-energy cutoff     =     130.0000  Ry
     charge density cutoff     =     520.0000  Ry
     scf convergence threshold =      1.0E-07
     mixing beta               =       0.7000
     number of iterations used =            8  plain     mixing
     energy convergence thresh.=      1.0E-05
     force convergence thresh. =      1.0E-04
     press convergence thresh. =      5.0E-01
     Exchange-correlation= VDW-DF2-B86R
                           (   1   4  26   0   2   0   0)
     nstep                     =           50


     celldm(1)=   5.992589  celldm(2)=   0.000000  celldm(3)=   8.000000
     celldm(4)=   0.000000  celldm(5)=   0.000000  celldm(6)=   0.000000

     crystal axes: (cart. coord. in units of alat)
               a(1) = (   1.000000   0.000000   0.000000 )  
               a(2) = (  -0.500000   0.866025   0.000000 )  
               a(3) = (   0.000000   0.000000   8.000000 )  

     reciprocal axes: (cart. coord. in units 2 pi/alat)
               b(1) = (  1.000000  0.577350 -0.000000 )  
               b(2) = (  0.000000  1.154701  0.000000 )  
               b(3) = (  0.000000 -0.000000  0.125000 )  


     PseudoPot. # 1 for S  read from file:
     ../../../Pseudo/PBE/S.upf
     MD5 check sum: b72b6a9ca752e39de1a6cc592280dae2
     Pseudo is Norm-conserving + core correction, Zval =  6.0
     Generated using ONCVPSP code by D. R. Hamann
     Using radial grid of 1148 points,  6 beta functions with: 
                l(1) =   0
                l(2) =   0
                l(3) =   1
                l(4) =   1
                l(5) =   2
                l(6) =   2

     PseudoPot. # 2 for Mo read from file:
     ../../../Pseudo/PBE/Mo.upf
     MD5 check sum: 7ca7a9feba7bf08d88d14bc7fbf60c1e
     Pseudo is Norm-conserving + core correction, Zval = 14.0
     Generated using ONCVPSP code by D. R. Hamann
     Using radial grid of 1640 points,  6 beta functions with: 
                l(1) =   0
                l(2) =   0
                l(3) =   1
                l(4) =   1
                l(5) =   2
                l(6) =   2

     atomic species   valence    mass     pseudopotential
        S              6.00    32.06500     S ( 1.00)
        Mo            14.00   183.84000     Mo( 1.00)

     12 Sym. Ops., with inversion, found


                                    s                        frac. trans.

      isym =  1     identity                                     

 cryst.   s( 1) = (     1          0          0      )
                  (     0          1          0      )
                  (     0          0          1      )

 cart.    s( 1) = (  1.0000000  0.0000000  0.0000000 )
                  (  0.0000000  1.0000000  0.0000000 )
                  (  0.0000000  0.0000000  1.0000000 )


      isym =  2     180 deg rotation - cart. axis [1,0,0]        

 cryst.   s( 2) = (     1          0          0      )
                  (    -1         -1          0      )
                  (     0          0         -1      )

 cart.    s( 2) = (  1.0000000  0.0000000  0.0000000 )
                  (  0.0000000 -1.0000000  0.0000000 )
                  (  0.0000000  0.0000000 -1.0000000 )


      isym =  3     120 deg rotation - cryst. axis [0,0,1]       

 cryst.   s( 3) = (     0          1          0      )
                  (    -1         -1          0      )
                  (     0          0          1      )

 cart.    s( 3) = ( -0.5000000 -0.8660254  0.0000000 )
                  (  0.8660254 -0.5000000  0.0000000 )
                  (  0.0000000  0.0000000  1.0000000 )


      isym =  4     120 deg rotation - cryst. axis [0,0,-1]      

 cryst.   s( 4) = (    -1         -1          0      )
                  (     1          0          0      )
                  (     0          0          1      )

 cart.    s( 4) = ( -0.5000000  0.8660254  0.0000000 )
                  ( -0.8660254 -0.5000000  0.0000000 )
                  (  0.0000000  0.0000000  1.0000000 )


      isym =  5     180 deg rotation - cryst. axis [0,1,0]       

 cryst.   s( 5) = (    -1         -1          0      )
                  (     0          1          0      )
                  (     0          0         -1      )

 cart.    s( 5) = ( -0.5000000 -0.8660254  0.0000000 )
                  ( -0.8660254  0.5000000  0.0000000 )
                  (  0.0000000  0.0000000 -1.0000000 )


      isym =  6     180 deg rotation - cryst. axis [1,1,0]       

 cryst.   s( 6) = (     0          1          0      )
                  (     1          0          0      )
                  (     0          0         -1      )

 cart.    s( 6) = ( -0.5000000  0.8660254  0.0000000 )
                  (  0.8660254  0.5000000  0.0000000 )
                  (  0.0000000  0.0000000 -1.0000000 )


      isym =  7     inversion                                    

 cryst.   s( 7) = (    -1          0          0      )
                  (     0         -1          0      )
                  (     0          0         -1      )

 cart.    s( 7) = ( -1.0000000  0.0000000  0.0000000 )
                  (  0.0000000 -1.0000000  0.0000000 )
                  (  0.0000000  0.0000000 -1.0000000 )


      isym =  8     inv. 180 deg rotation - cart. axis [1,0,0]   

 cryst.   s( 8) = (    -1          0          0      )
                  (     1          1          0      )
                  (     0          0          1      )

 cart.    s( 8) = ( -1.0000000  0.0000000  0.0000000 )
                  (  0.0000000  1.0000000  0.0000000 )
                  (  0.0000000  0.0000000  1.0000000 )


      isym =  9     inv. 120 deg rotation - cryst. axis [0,0,1]  

 cryst.   s( 9) = (     0         -1          0      )
                  (     1          1          0      )
                  (     0          0         -1      )

 cart.    s( 9) = (  0.5000000  0.8660254  0.0000000 )
                  ( -0.8660254  0.5000000  0.0000000 )
                  (  0.0000000  0.0000000 -1.0000000 )


      isym = 10     inv. 120 deg rotation - cryst. axis [0,0,-1] 

 cryst.   s(10) = (     1          1          0      )
                  (    -1          0          0      )
                  (     0          0         -1      )

 cart.    s(10) = (  0.5000000 -0.8660254  0.0000000 )
                  (  0.8660254  0.5000000  0.0000000 )
                  (  0.0000000  0.0000000 -1.0000000 )


      isym = 11     inv. 180 deg rotation - cryst. axis [0,1,0]  

 cryst.   s(11) = (     1          1          0      )
                  (     0         -1          0      )
                  (     0          0          1      )

 cart.    s(11) = (  0.5000000  0.8660254  0.0000000 )
                  (  0.8660254 -0.5000000  0.0000000 )
                  (  0.0000000  0.0000000  1.0000000 )


      isym = 12     inv. 180 deg rotation - cryst. axis [1,1,0]  

 cryst.   s(12) = (     0         -1          0      )
                  (    -1          0          0      )
                  (     0          0          1      )

 cart.    s(12) = (  0.5000000 -0.8660254  0.0000000 )
                  ( -0.8660254 -0.5000000  0.0000000 )
                  (  0.0000000  0.0000000  1.0000000 )


     point group D_3d (-3m) 
     there are  6 classes
     the character table:

       E     2C3   3C2'  i     2S6   3s_d 
A_1g   1.00  1.00  1.00  1.00  1.00  1.00
A_2g   1.00  1.00 -1.00  1.00  1.00 -1.00
E_g    2.00 -1.00  0.00  2.00 -1.00  0.00
A_1u   1.00  1.00  1.00 -1.00 -1.00 -1.00
A_2u   1.00  1.00 -1.00 -1.00 -1.00  1.00
E_u    2.00 -1.00  0.00 -2.00  1.00  0.00

     the symmetry operations in each class and the name of the first element:

     E        1
          identity                                               
     2C3      3    4
          120 deg rotation - cryst. axis [0,0,1]                 
     3C2'     2    5    6
          180 deg rotation - cart. axis [1,0,0]                  
     i        7
          inversion                                              
     2S6      9   10
          inv. 120 deg rotation - cryst. axis [0,0,1]            
     3s_d     8   11   12
          inv. 180 deg rotation - cart. axis [1,0,0]             

   Cartesian axes

     site n.     atom                  positions (alat units)
         1           Mo  tau(   1) = (  -0.0000003   0.5773503  -0.9751760  )
         2           Mo  tau(   2) = (   0.5000002   0.2886748   0.9751760  )
         3           S   tau(   3) = (   0.5000002   0.2886748  -0.4800040  )
         4           S   tau(   4) = (  -0.0000003   0.5773503   0.4800040  )
         5           S   tau(   5) = (  -0.0000003   0.5773503   1.4703200  )
         6           S   tau(   6) = (   0.5000002   0.2886748  -1.4703200  )

   Crystallographic axes

     site n.     atom                  positions (cryst. coord.)
         1           Mo  tau(   1) = (  0.3333330  0.6666667 -0.1218970  )
         2           Mo  tau(   2) = (  0.6666667  0.3333330  0.1218970  )
         3           S   tau(   3) = (  0.6666667  0.3333330 -0.0600005  )
         4           S   tau(   4) = (  0.3333330  0.6666667  0.0600005  )
         5           S   tau(   5) = (  0.3333330  0.6666667  0.1837900  )
         6           S   tau(   6) = (  0.6666667  0.3333330 -0.1837900  )

     number of k points=    50
                       cart. coord. in units 2pi/alat
        k(    1) = (   0.0000000   0.0000000   0.0000000), wk =   0.0046296
        k(    2) = (   0.0000000   0.0000000   0.0416667), wk =   0.0092593
        k(    3) = (   0.0000000   0.0962250   0.0000000), wk =   0.0277778
        k(    4) = (   0.0000000   0.0962250   0.0416667), wk =   0.0277778
        k(    5) = (   0.0000000   0.1924501   0.0000000), wk =   0.0277778
        k(    6) = (   0.0000000   0.1924501   0.0416667), wk =   0.0277778
        k(    7) = (   0.0000000   0.2886751   0.0000000), wk =   0.0277778
        k(    8) = (   0.0000000   0.2886751   0.0416667), wk =   0.0277778
        k(    9) = (   0.0000000   0.3849002   0.0000000), wk =   0.0277778
        k(   10) = (   0.0000000   0.3849002   0.0416667), wk =   0.0277778
        k(   11) = (   0.0000000   0.4811252   0.0000000), wk =   0.0277778
        k(   12) = (   0.0000000   0.4811252   0.0416667), wk =   0.0277778
        k(   13) = (   0.0000000  -0.5773503   0.0000000), wk =   0.0138889
        k(   14) = (   0.0000000  -0.5773503   0.0416667), wk =   0.0277778
        k(   15) = (   0.0833333   0.1443376   0.0000000), wk =   0.0277778
        k(   16) = (   0.0833333   0.1443376   0.0416667), wk =   0.0555556
        k(   17) = (   0.0833333   0.2405626   0.0000000), wk =   0.0555556
        k(   18) = (   0.0833333   0.2405626   0.0416667), wk =   0.0555556
        k(   19) = (   0.0833333   0.3367877   0.0000000), wk =   0.0555556
        k(   20) = (   0.0833333   0.3367877   0.0416667), wk =   0.0555556
        k(   21) = (   0.0833333   0.4330127   0.0000000), wk =   0.0555556
        k(   22) = (   0.0833333   0.4330127   0.0416667), wk =   0.0555556
        k(   23) = (   0.0833333   0.5292377   0.0000000), wk =   0.0555556
        k(   24) = (   0.0833333   0.5292377   0.0416667), wk =   0.0555556
        k(   25) = (   0.1666667   0.2886751   0.0000000), wk =   0.0277778
        k(   26) = (   0.1666667   0.2886751   0.0416667), wk =   0.0555556
        k(   27) = (   0.1666667   0.3849002   0.0000000), wk =   0.0555556
        k(   28) = (   0.1666667   0.3849002   0.0416667), wk =   0.0555556
        k(   29) = (   0.1666667   0.4811252   0.0000000), wk =   0.0555556
        k(   30) = (   0.1666667   0.4811252   0.0416667), wk =   0.0555556
        k(   31) = (   0.1666667   0.5773503   0.0000000), wk =   0.0277778
        k(   32) = (   0.1666667   0.5773503   0.0416667), wk =   0.0555556
        k(   33) = (   0.2500000   0.4330127   0.0000000), wk =   0.0277778
        k(   34) = (   0.2500000   0.4330127   0.0416667), wk =   0.0555556
        k(   35) = (   0.2500000   0.5292377   0.0000000), wk =   0.0555556
        k(   36) = (   0.2500000   0.5292377   0.0416667), wk =   0.0555556
        k(   37) = (   0.3333333   0.5773503   0.0000000), wk =   0.0092593
        k(   38) = (   0.3333333   0.5773503   0.0416667), wk =   0.0185185
        k(   39) = (   0.0000000   0.0962250  -0.0416667), wk =   0.0277778
        k(   40) = (   0.0000000   0.1924501  -0.0416667), wk =   0.0277778
        k(   41) = (   0.0000000   0.2886751  -0.0416667), wk =   0.0277778
        k(   42) = (   0.0000000   0.3849002  -0.0416667), wk =   0.0277778
        k(   43) = (   0.0000000   0.4811252  -0.0416667), wk =   0.0277778
        k(   44) = (  -0.0833333   0.2405626  -0.0416667), wk =   0.0555556
        k(   45) = (  -0.0833333   0.3367877  -0.0416667), wk =   0.0555556
        k(   46) = (  -0.0833333   0.4330127  -0.0416667), wk =   0.0555556
        k(   47) = (  -0.0833333   0.5292377  -0.0416667), wk =   0.0555556
        k(   48) = (  -0.1666667   0.3849002  -0.0416667), wk =   0.0555556
        k(   49) = (  -0.1666667   0.4811252  -0.0416667), wk =   0.0555556
        k(   50) = (  -0.2500000   0.5292377  -0.0416667), wk =   0.0555556

                       cryst. coord.
        k(    1) = (   0.0000000   0.0000000   0.0000000), wk =   0.0046296
        k(    2) = (   0.0000000   0.0000000   0.3333333), wk =   0.0092593
        k(    3) = (   0.0000000   0.0833333   0.0000000), wk =   0.0277778
        k(    4) = (   0.0000000   0.0833333   0.3333333), wk =   0.0277778
        k(    5) = (   0.0000000   0.1666667   0.0000000), wk =   0.0277778
        k(    6) = (   0.0000000   0.1666667   0.3333333), wk =   0.0277778
        k(    7) = (   0.0000000   0.2500000   0.0000000), wk =   0.0277778
        k(    8) = (   0.0000000   0.2500000   0.3333333), wk =   0.0277778
        k(    9) = (   0.0000000   0.3333333   0.0000000), wk =   0.0277778
        k(   10) = (   0.0000000   0.3333333   0.3333333), wk =   0.0277778
        k(   11) = (   0.0000000   0.4166667   0.0000000), wk =   0.0277778
        k(   12) = (   0.0000000   0.4166667   0.3333333), wk =   0.0277778
        k(   13) = (   0.0000000  -0.5000000   0.0000000), wk =   0.0138889
        k(   14) = (   0.0000000  -0.5000000   0.3333333), wk =   0.0277778
        k(   15) = (   0.0833333   0.0833333   0.0000000), wk =   0.0277778
        k(   16) = (   0.0833333   0.0833333   0.3333333), wk =   0.0555556
        k(   17) = (   0.0833333   0.1666667   0.0000000), wk =   0.0555556
        k(   18) = (   0.0833333   0.1666667   0.3333333), wk =   0.0555556
        k(   19) = (   0.0833333   0.2500000   0.0000000), wk =   0.0555556
        k(   20) = (   0.0833333   0.2500000   0.3333333), wk =   0.0555556
        k(   21) = (   0.0833333   0.3333333   0.0000000), wk =   0.0555556
        k(   22) = (   0.0833333   0.3333333   0.3333333), wk =   0.0555556
        k(   23) = (   0.0833333   0.4166667   0.0000000), wk =   0.0555556
        k(   24) = (   0.0833333   0.4166667   0.3333333), wk =   0.0555556
        k(   25) = (   0.1666667   0.1666667   0.0000000), wk =   0.0277778
        k(   26) = (   0.1666667   0.1666667   0.3333333), wk =   0.0555556
        k(   27) = (   0.1666667   0.2500000   0.0000000), wk =   0.0555556
        k(   28) = (   0.1666667   0.2500000   0.3333333), wk =   0.0555556
        k(   29) = (   0.1666667   0.3333333   0.0000000), wk =   0.0555556
        k(   30) = (   0.1666667   0.3333333   0.3333333), wk =   0.0555556
        k(   31) = (   0.1666667   0.4166667   0.0000000), wk =   0.0277778
        k(   32) = (   0.1666667   0.4166667   0.3333333), wk =   0.0555556
        k(   33) = (   0.2500000   0.2500000   0.0000000), wk =   0.0277778
        k(   34) = (   0.2500000   0.2500000   0.3333333), wk =   0.0555556
        k(   35) = (   0.2500000   0.3333333   0.0000000), wk =   0.0555556
        k(   36) = (   0.2500000   0.3333333   0.3333333), wk =   0.0555556
        k(   37) = (   0.3333333   0.3333333   0.0000000), wk =   0.0092593
        k(   38) = (   0.3333333   0.3333333   0.3333333), wk =   0.0185185
        k(   39) = (   0.0000000   0.0833333  -0.3333333), wk =   0.0277778
        k(   40) = (   0.0000000   0.1666667  -0.3333333), wk =   0.0277778
        k(   41) = (   0.0000000   0.2500000  -0.3333333), wk =   0.0277778
        k(   42) = (   0.0000000   0.3333333  -0.3333333), wk =   0.0277778
        k(   43) = (   0.0000000   0.4166667  -0.3333333), wk =   0.0277778
        k(   44) = (  -0.0833333   0.2500000  -0.3333333), wk =   0.0555556
        k(   45) = (  -0.0833333   0.3333333  -0.3333333), wk =   0.0555556
        k(   46) = (  -0.0833333   0.4166667  -0.3333333), wk =   0.0555556
        k(   47) = (  -0.0833333   0.5000000  -0.3333333), wk =   0.0555556
        k(   48) = (  -0.1666667   0.4166667  -0.3333333), wk =   0.0555556
        k(   49) = (  -0.1666667   0.5000000  -0.3333333), wk =   0.0555556
        k(   50) = (  -0.2500000   0.5833333  -0.3333333), wk =   0.0555556

     Dense  grid:   298751 G-vectors     FFT dimensions: (  45,  45, 360)

     Dynamical RAM for                 wfc:       1.85 MB

     Dynamical RAM for     wfc (w. buffer):      94.37 MB

     Dynamical RAM for           str. fact:       1.14 MB

     Dynamical RAM for           local pot:       0.00 MB

     Dynamical RAM for          nlocal pot:       7.69 MB

     Dynamical RAM for                qrad:       7.32 MB

     Dynamical RAM for          rho,v,vnew:       3.80 MB

     Dynamical RAM for               rhoin:       1.27 MB

     Dynamical RAM for            rho*nmix:       9.12 MB

     Dynamical RAM for           G-vectors:       2.42 MB

     Dynamical RAM for          h,s,v(r/c):       0.12 MB

     Dynamical RAM for          <psi|beta>:       0.04 MB

     Dynamical RAM for                 psi:       3.70 MB

     Dynamical RAM for                hpsi:       3.70 MB

     Dynamical RAM for      wfcinit/wfcrot:       5.15 MB

     Estimated static dynamical RAM per process >     123.18 MB

     Estimated max dynamical RAM per process >     139.87 MB

     Estimated total dynamical RAM >       1.09 GB

     Initial potential from superposition of free atoms

     starting charge      51.9970, renormalised to      52.0000

     negative rho (up, down):  5.564E-07 0.000E+00


     %%%%%%%%%%%%%%%%%%%%%%%%%%%%%%%%%%%%%%%%%%%%%%%%%%%%%%%%%%%%%%%%%%%%%%%%
     %                                                                      %
     % You are using vdW-DF, which was implemented by the Thonhauser group. %
     % Please cite the following two papers that made this development      %
     % possible and the two reviews that describe the various versions:     %
     %                                                                      %
     %   T. Thonhauser et al., PRL 115, 136402 (2015).                      %
     %   T. Thonhauser et al., PRB 76, 125112 (2007).                       %
     %   K. Berland et al., Rep. Prog. Phys. 78, 066501 (2015).             %
     %   D.C. Langreth et al., J. Phys.: Condens. Matter 21, 084203 (2009). %
     %                                                                      %
     % If you are calculating stress with vdW-DF, please also cite:         %
     %                                                                      %
     %   R. Sabatini et al., J. Phys.: Condens. Matter 24, 424209 (2012).   %
     %                                                                      %
     %%%%%%%%%%%%%%%%%%%%%%%%%%%%%%%%%%%%%%%%%%%%%%%%%%%%%%%%%%%%%%%%%%%%%%%%

     %%%%%%%%%%%%%%%%%%%%%%%%%%%%%%%%%%%%%%%%%%%%%%%%%%%%%%%%%%%%%%%%%%%%%%%%
     %                                                                      %
     %  vdW-DF NEWS:                                                        %
     %                                                                      %
     %  * vdW-DF3 is now available. DOI: 10.1021/acs.jctc.0c00471           %
     %    use with input_dft = 'vdW-DF3-opt1' or 'vdW-DF3-opt2'             %
     %                                                                      %
     %  * Unscreened and range-separated hybrid vdW-DF-cx functionals       %
     %    DOI: 10.1063/1.4986522 and 10.1088/1361-648X/ac2ad2               %
     %    use with input_dft = 'vdW-DF-cx0'    and 'vdW-DF-ahcx'            %
     %  * Unscreened and range-separated hybrid vdW-DF2-b86r functionals    %
     %    DOI: 10.1063/1.4986522 and DOI: 10.1103/PhysRevX.12.041003        %
     %    use with input_dft = 'vdW-DF2-br0' and 'vdW-DF2-ahbr'             %
     %                                                                      %
     %%%%%%%%%%%%%%%%%%%%%%%%%%%%%%%%%%%%%%%%%%%%%%%%%%%%%%%%%%%%%%%%%%%%%%%%


     Carrying out vdW-DF run using the following parameters:
     Nqs    =  20  Npoints =  1024  r_max =  100.000
     q_mesh =  0.00001000  0.04494208  0.09755937  0.15916263
               0.23128650  0.31572767  0.41458969  0.53033537
               0.66584808  0.82450364  1.01025438  1.22772762
               1.48234092  1.78043706  2.12944203  2.53805004
               3.01644009  3.57652955  4.23227104  5.00000000


     -----------------------------------------------
     Non-local corr. energy    =       0.58412461 Ry
     -----------------------------------------------

     Starting wfcs are   36 randomized atomic wfcs

     total cpu time spent up to now is       22.0 secs

     Self-consistent Calculation

     iteration #  1     ecut=   130.00 Ry     beta= 0.70
     Davidson diagonalization with overlap

---- Real-time Memory Report at c_bands before calling an iterative solver
             0 MiB given to the printing process from OS
             0 MiB allocation reported by mallinfo(arena+hblkhd)
             0 MiB available memory on the node where the printing process lives
------------------
     ethr =  1.00E-02,  avg # of iterations =  2.0


     -----------------------------------------------
     Non-local corr. energy    =       0.58621927 Ry
     -----------------------------------------------


     total cpu time spent up to now is       43.2 secs

     total energy              =    -369.17404510 Ry
     estimated scf accuracy    <       0.93832951 Ry

     iteration #  2     ecut=   130.00 Ry     beta= 0.70
     Davidson diagonalization with overlap

---- Real-time Memory Report at c_bands before calling an iterative solver
             0 MiB given to the printing process from OS
             0 MiB allocation reported by mallinfo(arena+hblkhd)
             0 MiB available memory on the node where the printing process lives
------------------
     ethr =  1.80E-03,  avg # of iterations =  7.1


     -----------------------------------------------
     Non-local corr. energy    =       0.58601343 Ry
     -----------------------------------------------


     total cpu time spent up to now is       81.4 secs

     total energy              =    -368.43372535 Ry
     estimated scf accuracy    <      10.25185554 Ry

     iteration #  3     ecut=   130.00 Ry     beta= 0.70
     Davidson diagonalization with overlap

---- Real-time Memory Report at c_bands before calling an iterative solver
             0 MiB given to the printing process from OS
             0 MiB allocation reported by mallinfo(arena+hblkhd)
             0 MiB available memory on the node where the printing process lives
------------------
     ethr =  1.80E-03,  avg # of iterations =  5.6


     -----------------------------------------------
     Non-local corr. energy    =       0.58219327 Ry
     -----------------------------------------------


     total cpu time spent up to now is      109.0 secs

     total energy              =    -369.73259380 Ry
     estimated scf accuracy    <       0.01470078 Ry

     iteration #  4     ecut=   130.00 Ry     beta= 0.70
     Davidson diagonalization with overlap

---- Real-time Memory Report at c_bands before calling an iterative solver
             0 MiB given to the printing process from OS
             0 MiB allocation reported by mallinfo(arena+hblkhd)
             0 MiB available memory on the node where the printing process lives
------------------
     ethr =  2.83E-05,  avg # of iterations =  6.4


     -----------------------------------------------
     Non-local corr. energy    =       0.58176026 Ry
     -----------------------------------------------


     total cpu time spent up to now is      141.4 secs

     total energy              =    -369.74939758 Ry
     estimated scf accuracy    <       0.04314898 Ry

     iteration #  5     ecut=   130.00 Ry     beta= 0.70
     Davidson diagonalization with overlap

---- Real-time Memory Report at c_bands before calling an iterative solver
             0 MiB given to the printing process from OS
             0 MiB allocation reported by mallinfo(arena+hblkhd)
             0 MiB available memory on the node where the printing process lives
------------------
     ethr =  2.83E-05,  avg # of iterations =  4.2


     -----------------------------------------------
     Non-local corr. energy    =       0.58193075 Ry
     -----------------------------------------------


     total cpu time spent up to now is      165.6 secs

     total energy              =    -369.75384032 Ry
     estimated scf accuracy    <       0.00202294 Ry

     iteration #  6     ecut=   130.00 Ry     beta= 0.70
     Davidson diagonalization with overlap

---- Real-time Memory Report at c_bands before calling an iterative solver
             0 MiB given to the printing process from OS
             0 MiB allocation reported by mallinfo(arena+hblkhd)
             0 MiB available memory on the node where the printing process lives
------------------
     ethr =  3.89E-06,  avg # of iterations =  4.6


     -----------------------------------------------
     Non-local corr. energy    =       0.58204430 Ry
     -----------------------------------------------


     total cpu time spent up to now is      193.1 secs

     total energy              =    -369.75445937 Ry
     estimated scf accuracy    <       0.00084744 Ry

     iteration #  7     ecut=   130.00 Ry     beta= 0.70
     Davidson diagonalization with overlap

---- Real-time Memory Report at c_bands before calling an iterative solver
             0 MiB given to the printing process from OS
             0 MiB allocation reported by mallinfo(arena+hblkhd)
             0 MiB available memory on the node where the printing process lives
------------------
     ethr =  1.63E-06,  avg # of iterations =  3.1

     negative rho (up, down):  3.000E-07 0.000E+00


     -----------------------------------------------
     Non-local corr. energy    =       0.58195765 Ry
     -----------------------------------------------


     total cpu time spent up to now is      214.4 secs

     total energy              =    -369.75454274 Ry
     estimated scf accuracy    <       0.00033699 Ry

     iteration #  8     ecut=   130.00 Ry     beta= 0.70
     Davidson diagonalization with overlap

---- Real-time Memory Report at c_bands before calling an iterative solver
             0 MiB given to the printing process from OS
             0 MiB allocation reported by mallinfo(arena+hblkhd)
             0 MiB available memory on the node where the printing process lives
------------------
     ethr =  6.48E-07,  avg # of iterations =  2.1


     -----------------------------------------------
     Non-local corr. energy    =       0.58200144 Ry
     -----------------------------------------------


     total cpu time spent up to now is      233.0 secs

     total energy              =    -369.75450965 Ry
     estimated scf accuracy    <       0.00016037 Ry

     iteration #  9     ecut=   130.00 Ry     beta= 0.70
     Davidson diagonalization with overlap

---- Real-time Memory Report at c_bands before calling an iterative solver
             0 MiB given to the printing process from OS
             0 MiB allocation reported by mallinfo(arena+hblkhd)
             0 MiB available memory on the node where the printing process lives
------------------
     ethr =  3.08E-07,  avg # of iterations =  4.3


     -----------------------------------------------
     Non-local corr. energy    =       0.58201121 Ry
     -----------------------------------------------


     total cpu time spent up to now is      256.2 secs

     total energy              =    -369.75454422 Ry
     estimated scf accuracy    <       0.00002478 Ry

     iteration # 10     ecut=   130.00 Ry     beta= 0.70
     Davidson diagonalization with overlap

---- Real-time Memory Report at c_bands before calling an iterative solver
             0 MiB given to the printing process from OS
             0 MiB allocation reported by mallinfo(arena+hblkhd)
             0 MiB available memory on the node where the printing process lives
------------------
     ethr =  4.76E-08,  avg # of iterations =  3.1


     -----------------------------------------------
     Non-local corr. energy    =       0.58202037 Ry
     -----------------------------------------------


     total cpu time spent up to now is      276.4 secs

     total energy              =    -369.75454339 Ry
     estimated scf accuracy    <       0.00001259 Ry

     iteration # 11     ecut=   130.00 Ry     beta= 0.70
     Davidson diagonalization with overlap

---- Real-time Memory Report at c_bands before calling an iterative solver
             0 MiB given to the printing process from OS
             0 MiB allocation reported by mallinfo(arena+hblkhd)
             0 MiB available memory on the node where the printing process lives
------------------
     ethr =  2.42E-08,  avg # of iterations =  4.5


     -----------------------------------------------
     Non-local corr. energy    =       0.58201712 Ry
     -----------------------------------------------


     total cpu time spent up to now is      299.9 secs

     total energy              =    -369.75454607 Ry
     estimated scf accuracy    <       0.00000256 Ry

     iteration # 12     ecut=   130.00 Ry     beta= 0.70
     Davidson diagonalization with overlap

---- Real-time Memory Report at c_bands before calling an iterative solver
             0 MiB given to the printing process from OS
             0 MiB allocation reported by mallinfo(arena+hblkhd)
             0 MiB available memory on the node where the printing process lives
------------------
     ethr =  4.93E-09,  avg # of iterations =  2.9


     -----------------------------------------------
     Non-local corr. energy    =       0.58201586 Ry
     -----------------------------------------------


     total cpu time spent up to now is      319.4 secs

     total energy              =    -369.75454601 Ry
     estimated scf accuracy    <       0.00000077 Ry

     iteration # 13     ecut=   130.00 Ry     beta= 0.70
     Davidson diagonalization with overlap

---- Real-time Memory Report at c_bands before calling an iterative solver
             0 MiB given to the printing process from OS
             0 MiB allocation reported by mallinfo(arena+hblkhd)
             0 MiB available memory on the node where the printing process lives
------------------
     ethr =  1.49E-09,  avg # of iterations =  5.3


     -----------------------------------------------
     Non-local corr. energy    =       0.58201637 Ry
     -----------------------------------------------


     total cpu time spent up to now is      345.8 secs

     total energy              =    -369.75454628 Ry
     estimated scf accuracy    <       0.00000080 Ry

     iteration # 14     ecut=   130.00 Ry     beta= 0.70
     Davidson diagonalization with overlap

---- Real-time Memory Report at c_bands before calling an iterative solver
             0 MiB given to the printing process from OS
             0 MiB allocation reported by mallinfo(arena+hblkhd)
             0 MiB available memory on the node where the printing process lives
------------------
     ethr =  1.49E-09,  avg # of iterations =  1.9


     -----------------------------------------------
     Non-local corr. energy    =       0.58201622 Ry
     -----------------------------------------------


     total cpu time spent up to now is      364.8 secs

     total energy              =    -369.75454627 Ry
     estimated scf accuracy    <       0.00000027 Ry

     iteration # 15     ecut=   130.00 Ry     beta= 0.70
     Davidson diagonalization with overlap

---- Real-time Memory Report at c_bands before calling an iterative solver
             0 MiB given to the printing process from OS
             0 MiB allocation reported by mallinfo(arena+hblkhd)
             0 MiB available memory on the node where the printing process lives
------------------
     ethr =  5.10E-10,  avg # of iterations =  4.0


     -----------------------------------------------
     Non-local corr. energy    =       0.58201672 Ry
     -----------------------------------------------


     total cpu time spent up to now is      388.0 secs

     End of self-consistent calculation

          k = 0.0000 0.0000 0.0000 ( 37253 PWs)   bands (ev):

   -58.9934 -58.9934 -33.1566 -33.1565 -32.9309 -32.9309 -32.9309 -32.9309
   -12.3448 -12.2052 -11.0935 -10.8780  -4.0825  -3.5557  -0.7505  -0.7505
    -0.7440  -0.7440  -0.5377   0.3520   0.3520   0.3748   0.3749   0.5159
     1.5707   2.2498

     occupation numbers 
     1.0000   1.0000   1.0000   1.0000   1.0000   1.0000   1.0000   1.0000
     1.0000   1.0000   1.0000   1.0000   1.0000   1.0000   1.0000   1.0000
     1.0000   1.0000   1.0000   1.0000   1.0000   1.0000   1.0000   1.0000
     1.0000   1.0000

          k = 0.0000 0.0000 0.0417 ( 37224 PWs)   bands (ev):

   -58.9934 -58.9934 -33.1566 -33.1565 -32.9309 -32.9309 -32.9309 -32.9309
   -12.3448 -12.2052 -11.0935 -10.8780  -4.0825  -3.5557  -0.7505  -0.7505
    -0.7440  -0.7440  -0.5377   0.3520   0.3520   0.3748   0.3749   0.5159
     1.5707   2.2498

     occupation numbers 
     1.0000   1.0000   1.0000   1.0000   1.0000   1.0000   1.0000   1.0000
     1.0000   1.0000   1.0000   1.0000   1.0000   1.0000   1.0000   1.0000
     1.0000   1.0000   1.0000   1.0000   1.0000   1.0000   1.0000   1.0000
     1.0000   1.0000

          k = 0.0000 0.0962 0.0000 ( 37193 PWs)   bands (ev):

   -58.9908 -58.9908 -33.1514 -33.1513 -32.9574 -32.9574 -32.9369 -32.9369
   -12.2409 -12.1021 -11.0466 -10.8377  -3.9641  -3.4380  -0.9836  -0.9727
    -0.8122  -0.6433  -0.6339  -0.2016   0.1859   0.2112   0.5119   0.8837
     1.5556   2.1157

     occupation numbers 
     1.0000   1.0000   1.0000   1.0000   1.0000   1.0000   1.0000   1.0000
     1.0000   1.0000   1.0000   1.0000   1.0000   1.0000   1.0000   1.0000
     1.0000   1.0000   1.0000   1.0000   1.0000   1.0000   1.0000   1.0000
     1.0000   1.0000

          k = 0.0000 0.0962 0.0417 ( 37207 PWs)   bands (ev):

   -58.9908 -58.9908 -33.1514 -33.1513 -32.9574 -32.9574 -32.9369 -32.9369
   -12.2409 -12.1021 -11.0466 -10.8377  -3.9641  -3.4380  -0.9836  -0.9727
    -0.8122  -0.6433  -0.6339  -0.2016   0.1859   0.2112   0.5119   0.8837
     1.5556   2.1157

     occupation numbers 
     1.0000   1.0000   1.0000   1.0000   1.0000   1.0000   1.0000   1.0000
     1.0000   1.0000   1.0000   1.0000   1.0000   1.0000   1.0000   1.0000
     1.0000   1.0000   1.0000   1.0000   1.0000   1.0000   1.0000   1.0000
     1.0000   1.0000

          k = 0.0000 0.1925 0.0000 ( 37245 PWs)   bands (ev):

   -58.9836 -58.9836 -33.1372 -33.1372 -33.0293 -33.0293 -32.9533 -32.9533
   -11.9449 -11.8091 -10.9128 -10.7235  -3.6608  -3.1490  -1.5320  -1.4938
    -1.3234  -0.8898  -0.3459  -0.3273  -0.2032  -0.1744   0.5519   0.9488
     1.4162   1.6674

     occupation numbers 
     1.0000   1.0000   1.0000   1.0000   1.0000   1.0000   1.0000   1.0000
     1.0000   1.0000   1.0000   1.0000   1.0000   1.0000   1.0000   1.0000
     1.0000   1.0000   1.0000   1.0000   1.0000   1.0000   1.0000   1.0000
     1.0000   1.0000

          k = 0.0000 0.1925 0.0417 ( 37261 PWs)   bands (ev):

   -58.9836 -58.9836 -33.1372 -33.1372 -33.0293 -33.0293 -32.9533 -32.9533
   -11.9449 -11.8091 -10.9128 -10.7235  -3.6608  -3.1490  -1.5320  -1.4938
    -1.3234  -0.8898  -0.3459  -0.3273  -0.2032  -0.1744   0.5519   0.9488
     1.4162   1.6674

     occupation numbers 
     1.0000   1.0000   1.0000   1.0000   1.0000   1.0000   1.0000   1.0000
     1.0000   1.0000   1.0000   1.0000   1.0000   1.0000   1.0000   1.0000
     1.0000   1.0000   1.0000   1.0000   1.0000   1.0000   1.0000   1.0000
     1.0000   1.0000

          k = 0.0000 0.2887 0.0000 ( 37311 PWs)   bands (ev):

   -58.9738 -58.9738 -33.1261 -33.1261 -33.1178 -33.1178 -32.9757 -32.9757
   -11.5043 -11.3769 -10.7149 -10.5572  -3.3917  -2.9926  -2.0946  -1.9238
    -1.8384  -1.5660  -0.6429  -0.6080   0.0726   0.1049   0.3204   0.6616
     1.0484   1.1138

     occupation numbers 
     1.0000   1.0000   1.0000   1.0000   1.0000   1.0000   1.0000   1.0000
     1.0000   1.0000   1.0000   1.0000   1.0000   1.0000   1.0000   1.0000
     1.0000   1.0000   1.0000   1.0000   1.0000   1.0000   1.0000   1.0000
     1.0000   1.0000

          k = 0.0000 0.2887 0.0417 ( 37286 PWs)   bands (ev):

   -58.9738 -58.9738 -33.1261 -33.1261 -33.1178 -33.1178 -32.9757 -32.9757
   -11.5043 -11.3769 -10.7149 -10.5572  -3.3917  -2.9926  -2.0946  -1.9238
    -1.8384  -1.5660  -0.6429  -0.6080   0.0726   0.1049   0.3204   0.6616
     1.0484   1.1138

     occupation numbers 
     1.0000   1.0000   1.0000   1.0000   1.0000   1.0000   1.0000   1.0000
     1.0000   1.0000   1.0000   1.0000   1.0000   1.0000   1.0000   1.0000
     1.0000   1.0000   1.0000   1.0000   1.0000   1.0000   1.0000   1.0000
     1.0000   1.0000

          k = 0.0000 0.3849 0.0000 ( 37363 PWs)   bands (ev):

   -58.9640 -58.9640 -33.2216 -33.2216 -33.0983 -33.0983 -32.9979 -32.9979
   -11.0050 -10.8950 -10.4940 -10.3780  -3.5271  -3.3153  -2.5506  -2.3234
    -2.1301  -1.8518  -1.0103  -0.9726   0.0315   0.3003   0.4814   0.5394
     0.7808   0.9062

     occupation numbers 
     1.0000   1.0000   1.0000   1.0000   1.0000   1.0000   1.0000   1.0000
     1.0000   1.0000   1.0000   1.0000   1.0000   1.0000   1.0000   1.0000
     1.0000   1.0000   1.0000   1.0000   1.0000   1.0000   1.0000   1.0000
     1.0000   1.0000

          k = 0.0000 0.3849 0.0417 ( 37339 PWs)   bands (ev):

   -58.9640 -58.9640 -33.2216 -33.2216 -33.0983 -33.0983 -32.9979 -32.9979
   -11.0050 -10.8950 -10.4940 -10.3780  -3.5271  -3.3153  -2.5506  -2.3234
    -2.1301  -1.8518  -1.0103  -0.9726   0.0315   0.3003   0.4814   0.5394
     0.7808   0.9062

     occupation numbers 
     1.0000   1.0000   1.0000   1.0000   1.0000   1.0000   1.0000   1.0000
     1.0000   1.0000   1.0000   1.0000   1.0000   1.0000   1.0000   1.0000
     1.0000   1.0000   1.0000   1.0000   1.0000   1.0000   1.0000   1.0000
     1.0000   1.0000

          k = 0.0000 0.4811 0.0000 ( 37349 PWs)   bands (ev):

   -58.9567 -58.9567 -33.2906 -33.2906 -33.0840 -33.0840 -33.0142 -33.0142
   -10.5813 -10.4993 -10.3102 -10.2413  -3.8745  -3.7119  -2.9347  -2.7738
    -2.2846  -1.9725  -1.2488  -1.2094  -0.1274   0.0601   0.7569   0.8433
     0.9555   1.0789

     occupation numbers 
     1.0000   1.0000   1.0000   1.0000   1.0000   1.0000   1.0000   1.0000
     1.0000   1.0000   1.0000   1.0000   1.0000   1.0000   1.0000   1.0000
     1.0000   1.0000   1.0000   1.0000   1.0000   1.0000   1.0000   1.0000
     1.0000   1.0000

          k = 0.0000 0.4811 0.0417 ( 37368 PWs)   bands (ev):

   -58.9567 -58.9567 -33.2906 -33.2906 -33.0840 -33.0840 -33.0142 -33.0142
   -10.5813 -10.4993 -10.3102 -10.2413  -3.8745  -3.7119  -2.9347  -2.7738
    -2.2846  -1.9725  -1.2488  -1.2094  -0.1274   0.0601   0.7569   0.8433
     0.9555   1.0789

     occupation numbers 
     1.0000   1.0000   1.0000   1.0000   1.0000   1.0000   1.0000   1.0000
     1.0000   1.0000   1.0000   1.0000   1.0000   1.0000   1.0000   1.0000
     1.0000   1.0000   1.0000   1.0000   1.0000   1.0000   1.0000   1.0000
     1.0000   1.0000

          k = 0.0000-0.5774 0.0000 ( 37360 PWs)   bands (ev):

   -58.9541 -58.9541 -33.3157 -33.3157 -33.0787 -33.0787 -33.0201 -33.0201
   -10.4056 -10.3441 -10.2345 -10.1941  -4.0355  -3.8755  -3.0833  -2.9455
    -2.3665  -2.0574  -1.3309  -1.2910  -0.1623  -0.0285   0.8481   0.9472
     1.1541   1.2074

     occupation numbers 
     1.0000   1.0000   1.0000   1.0000   1.0000   1.0000   1.0000   1.0000
     1.0000   1.0000   1.0000   1.0000   1.0000   1.0000   1.0000   1.0000
     1.0000   1.0000   1.0000   1.0000   1.0000   1.0000   1.0000   1.0000
     1.0000   1.0000

          k = 0.0000-0.5774 0.0417 ( 37398 PWs)   bands (ev):

   -58.9541 -58.9541 -33.3157 -33.3157 -33.0787 -33.0787 -33.0201 -33.0201
   -10.4056 -10.3441 -10.2345 -10.1941  -4.0355  -3.8755  -3.0833  -2.9455
    -2.3665  -2.0574  -1.3309  -1.2910  -0.1623  -0.0285   0.8481   0.9472
     1.1541   1.2074

     occupation numbers 
     1.0000   1.0000   1.0000   1.0000   1.0000   1.0000   1.0000   1.0000
     1.0000   1.0000   1.0000   1.0000   1.0000   1.0000   1.0000   1.0000
     1.0000   1.0000   1.0000   1.0000   1.0000   1.0000   1.0000   1.0000
     1.0000   1.0000

          k = 0.0833 0.1443 0.0000 ( 37211 PWs)   bands (ev):

   -58.9859 -58.9859 -33.1417 -33.1417 -33.0052 -33.0052 -32.9495 -32.9495
   -12.0408 -11.9039 -10.9561 -10.7603  -3.7503  -3.2300  -1.3564  -1.3493
    -1.1547  -0.6503  -0.4470  -0.4359  -0.2027  -0.1650   0.6728   1.0425
     1.4796   1.8238

     occupation numbers 
     1.0000   1.0000   1.0000   1.0000   1.0000   1.0000   1.0000   1.0000
     1.0000   1.0000   1.0000   1.0000   1.0000   1.0000   1.0000   1.0000
     1.0000   1.0000   1.0000   1.0000   1.0000   1.0000   1.0000   1.0000
     1.0000   1.0000

          k = 0.0833 0.1443 0.0417 ( 37232 PWs)   bands (ev):

   -58.9859 -58.9859 -33.1417 -33.1417 -33.0052 -33.0052 -32.9495 -32.9495
   -12.0408 -11.9039 -10.9561 -10.7603  -3.7503  -3.2300  -1.3564  -1.3493
    -1.1547  -0.6503  -0.4470  -0.4359  -0.2027  -0.1650   0.6728   1.0425
     1.4796   1.8238

     occupation numbers 
     1.0000   1.0000   1.0000   1.0000   1.0000   1.0000   1.0000   1.0000
     1.0000   1.0000   1.0000   1.0000   1.0000   1.0000   1.0000   1.0000
     1.0000   1.0000   1.0000   1.0000   1.0000   1.0000   1.0000   1.0000
     1.0000   1.0000

          k = 0.0833 0.2406 0.0000 ( 37283 PWs)   bands (ev):

   -58.9774 -58.9774 -33.1249 -33.1249 -33.0861 -33.0861 -32.9723 -32.9723
   -11.6716 -11.5403 -10.7893 -10.6189  -3.4402  -2.9692  -1.8701  -1.8119
    -1.5916  -1.2419  -0.7670  -0.6941  -0.1362  -0.1176   0.6809   0.9603
     1.2245   1.3041

     occupation numbers 
     1.0000   1.0000   1.0000   1.0000   1.0000   1.0000   1.0000   1.0000
     1.0000   1.0000   1.0000   1.0000   1.0000   1.0000   1.0000   1.0000
     1.0000   1.0000   1.0000   1.0000   1.0000   1.0000   1.0000   1.0000
     1.0000   1.0000

          k = 0.0833 0.2406 0.0417 ( 37284 PWs)   bands (ev):

   -58.9774 -58.9774 -33.1249 -33.1249 -33.0861 -33.0861 -32.9723 -32.9723
   -11.6716 -11.5403 -10.7893 -10.6189  -3.4402  -2.9692  -1.8701  -1.8119
    -1.5916  -1.2419  -0.7670  -0.6941  -0.1362  -0.1176   0.6809   0.9603
     1.2245   1.3041

     occupation numbers 
     1.0000   1.0000   1.0000   1.0000   1.0000   1.0000   1.0000   1.0000
     1.0000   1.0000   1.0000   1.0000   1.0000   1.0000   1.0000   1.0000
     1.0000   1.0000   1.0000   1.0000   1.0000   1.0000   1.0000   1.0000
     1.0000   1.0000

          k = 0.0833 0.3368 0.0000 ( 37310 PWs)   bands (ev):

   -58.9676 -58.9676 -33.1781 -33.1781 -33.1054 -33.1054 -32.9988 -32.9988
   -11.1980 -11.0797 -10.5768 -10.4429  -3.3615  -3.0810  -2.2901  -2.0820
    -1.9956  -1.8114  -1.1606  -1.0329   0.0956   0.1208   0.4265   0.6087
     0.9420   0.9937

     occupation numbers 
     1.0000   1.0000   1.0000   1.0000   1.0000   1.0000   1.0000   1.0000
     1.0000   1.0000   1.0000   1.0000   1.0000   1.0000   1.0000   1.0000
     1.0000   1.0000   1.0000   1.0000   1.0000   1.0000   1.0000   1.0000
     1.0000   1.0000

          k = 0.0833 0.3368 0.0417 ( 37316 PWs)   bands (ev):

   -58.9676 -58.9676 -33.1781 -33.1781 -33.1054 -33.1054 -32.9988 -32.9988
   -11.1980 -11.0797 -10.5768 -10.4429  -3.3615  -3.0810  -2.2901  -2.0820
    -1.9956  -1.8114  -1.1606  -1.0329   0.0956   0.1208   0.4265   0.6087
     0.9420   0.9937

     occupation numbers 
     1.0000   1.0000   1.0000   1.0000   1.0000   1.0000   1.0000   1.0000
     1.0000   1.0000   1.0000   1.0000   1.0000   1.0000   1.0000   1.0000
     1.0000   1.0000   1.0000   1.0000   1.0000   1.0000   1.0000   1.0000
     1.0000   1.0000

          k = 0.0833 0.4330 0.0000 ( 37353 PWs)   bands (ev):

   -58.9590 -58.9590 -33.2567 -33.2567 -33.0885 -33.0885 -33.0216 -33.0216
   -10.7278 -10.6330 -10.3687 -10.2795  -3.6393  -3.4678  -2.7647  -2.6368
    -2.1742  -1.8800  -1.3246  -1.2116   0.0601   0.1916   0.2332   0.3031
     1.0627   1.1088

     occupation numbers 
     1.0000   1.0000   1.0000   1.0000   1.0000   1.0000   1.0000   1.0000
     1.0000   1.0000   1.0000   1.0000   1.0000   1.0000   1.0000   1.0000
     1.0000   1.0000   1.0000   1.0000   1.0000   1.0000   1.0000   1.0000
     1.0000   1.0000

          k = 0.0833 0.4330 0.0417 ( 37360 PWs)   bands (ev):

   -58.9590 -58.9590 -33.2567 -33.2567 -33.0885 -33.0885 -33.0216 -33.0216
   -10.7278 -10.6330 -10.3687 -10.2795  -3.6393  -3.4678  -2.7647  -2.6368
    -2.1742  -1.8800  -1.3246  -1.2116   0.0601   0.1916   0.2332   0.3031
     1.0627   1.1088

     occupation numbers 
     1.0000   1.0000   1.0000   1.0000   1.0000   1.0000   1.0000   1.0000
     1.0000   1.0000   1.0000   1.0000   1.0000   1.0000   1.0000   1.0000
     1.0000   1.0000   1.0000   1.0000   1.0000   1.0000   1.0000   1.0000
     1.0000   1.0000

          k = 0.0833 0.5292 0.0000 ( 37344 PWs)   bands (ev):

   -58.9541 -58.9541 -33.3017 -33.3017 -33.0788 -33.0787 -33.0348 -33.0348
   -10.4152 -10.3498 -10.2317 -10.1852  -3.8950  -3.7382  -3.0799  -2.9913
    -2.3189  -2.0124  -1.3566  -1.2925  -0.1359   0.0413   0.3103   0.4117
     1.2858   1.3589

     occupation numbers 
     1.0000   1.0000   1.0000   1.0000   1.0000   1.0000   1.0000   1.0000
     1.0000   1.0000   1.0000   1.0000   1.0000   1.0000   1.0000   1.0000
     1.0000   1.0000   1.0000   1.0000   1.0000   1.0000   1.0000   1.0000
     1.0000   1.0000

          k = 0.0833 0.5292 0.0417 ( 37336 PWs)   bands (ev):

   -58.9541 -58.9541 -33.3017 -33.3017 -33.0788 -33.0787 -33.0348 -33.0348
   -10.4152 -10.3498 -10.2317 -10.1852  -3.8950  -3.7382  -3.0799  -2.9913
    -2.3189  -2.0124  -1.3566  -1.2925  -0.1359   0.0413   0.3103   0.4117
     1.2858   1.3589

     occupation numbers 
     1.0000   1.0000   1.0000   1.0000   1.0000   1.0000   1.0000   1.0000
     1.0000   1.0000   1.0000   1.0000   1.0000   1.0000   1.0000   1.0000
     1.0000   1.0000   1.0000   1.0000   1.0000   1.0000   1.0000   1.0000
     1.0000   1.0000

          k = 0.1667 0.2887 0.0000 ( 37321 PWs)   bands (ev):

   -58.9689 -58.9689 -33.1559 -33.1559 -33.1081 -33.1080 -33.0055 -33.0055
   -11.2667 -11.1457 -10.6055 -10.4653  -3.2841  -2.9582  -2.1003  -1.9662
    -1.8712  -1.7358  -1.4685  -1.1769  -0.1128  -0.1075   0.7323   0.8317
     1.0184   1.0285

     occupation numbers 
     1.0000   1.0000   1.0000   1.0000   1.0000   1.0000   1.0000   1.0000
     1.0000   1.0000   1.0000   1.0000   1.0000   1.0000   1.0000   1.0000
     1.0000   1.0000   1.0000   1.0000   1.0000   1.0000   1.0000   1.0000
     1.0000   1.0000

          k = 0.1667 0.2887 0.0417 ( 37314 PWs)   bands (ev):

   -58.9689 -58.9689 -33.1559 -33.1559 -33.1081 -33.1080 -33.0055 -33.0055
   -11.2667 -11.1457 -10.6055 -10.4653  -3.2841  -2.9582  -2.1003  -1.9662
    -1.8712  -1.7358  -1.4685  -1.1769  -0.1128  -0.1075   0.7323   0.8317
     1.0184   1.0285

     occupation numbers 
     1.0000   1.0000   1.0000   1.0000   1.0000   1.0000   1.0000   1.0000
     1.0000   1.0000   1.0000   1.0000   1.0000   1.0000   1.0000   1.0000
     1.0000   1.0000   1.0000   1.0000   1.0000   1.0000   1.0000   1.0000
     1.0000   1.0000

          k = 0.1667 0.3849 0.0000 ( 37342 PWs)   bands (ev):

   -58.9603 -58.9603 -33.2214 -33.2214 -33.0912 -33.0912 -33.0421 -33.0421
   -10.8126 -10.7111 -10.3988 -10.2977  -3.3900  -3.2054  -2.5757  -2.5192
    -2.0194  -1.8141  -1.5729  -1.2672  -0.4221  -0.3635   0.4300   0.5117
     1.0735   1.0845

     occupation numbers 
     1.0000   1.0000   1.0000   1.0000   1.0000   1.0000   1.0000   1.0000
     1.0000   1.0000   1.0000   1.0000   1.0000   1.0000   1.0000   1.0000
     1.0000   1.0000   1.0000   1.0000   1.0000   1.0000   1.0000   1.0000
     1.0000   1.0000

          k = 0.1667 0.3849 0.0417 ( 37328 PWs)   bands (ev):

   -58.9603 -58.9603 -33.2214 -33.2214 -33.0912 -33.0912 -33.0421 -33.0421
   -10.8126 -10.7111 -10.3988 -10.2977  -3.3900  -3.2054  -2.5757  -2.5192
    -2.0194  -1.8141  -1.5729  -1.2672  -0.4221  -0.3635   0.4300   0.5117
     1.0735   1.0845

     occupation numbers 
     1.0000   1.0000   1.0000   1.0000   1.0000   1.0000   1.0000   1.0000
     1.0000   1.0000   1.0000   1.0000   1.0000   1.0000   1.0000   1.0000
     1.0000   1.0000   1.0000   1.0000   1.0000   1.0000   1.0000   1.0000
     1.0000   1.0000

          k = 0.1667 0.4811 0.0000 ( 37307 PWs)   bands (ev):

   -58.9541 -58.9541 -33.2676 -33.2676 -33.0788 -33.0788 -33.0701 -33.0701
   -10.4335 -10.3614 -10.2255 -10.1683  -3.5666  -3.4202  -3.0826  -3.0612
    -2.1476  -1.8757  -1.4933  -1.2430  -0.5777  -0.4444   0.0023   0.1921
     1.2936   1.3574

     occupation numbers 
     1.0000   1.0000   1.0000   1.0000   1.0000   1.0000   1.0000   1.0000
     1.0000   1.0000   1.0000   1.0000   1.0000   1.0000   1.0000   1.0000
     1.0000   1.0000   1.0000   1.0000   1.0000   1.0000   1.0000   1.0000
     1.0000   1.0000

          k = 0.1667 0.4811 0.0417 ( 37302 PWs)   bands (ev):

   -58.9541 -58.9541 -33.2676 -33.2676 -33.0788 -33.0788 -33.0701 -33.0701
   -10.4335 -10.3614 -10.2255 -10.1683  -3.5666  -3.4202  -3.0826  -3.0612
    -2.1476  -1.8757  -1.4933  -1.2430  -0.5777  -0.4444   0.0023   0.1921
     1.2936   1.3574

     occupation numbers 
     1.0000   1.0000   1.0000   1.0000   1.0000   1.0000   1.0000   1.0000
     1.0000   1.0000   1.0000   1.0000   1.0000   1.0000   1.0000   1.0000
     1.0000   1.0000   1.0000   1.0000   1.0000   1.0000   1.0000   1.0000
     1.0000   1.0000

          k = 0.1667 0.5774 0.0000 ( 37329 PWs)   bands (ev):

   -58.9518 -58.9518 -33.2843 -33.2843 -33.0806 -33.0806 -33.0742 -33.0742
   -10.2776 -10.2274 -10.1536 -10.1238  -3.6391  -3.4949  -3.2689  -3.2591
    -2.2708  -1.9844  -1.3979  -1.2147  -0.5758  -0.4345  -0.1977   0.0361
     1.4553   1.5455

     occupation numbers 
     1.0000   1.0000   1.0000   1.0000   1.0000   1.0000   1.0000   1.0000
     1.0000   1.0000   1.0000   1.0000   1.0000   1.0000   1.0000   1.0000
     1.0000   1.0000   1.0000   1.0000   1.0000   1.0000   1.0000   1.0000
     1.0000   1.0000

          k = 0.1667 0.5774 0.0417 ( 37366 PWs)   bands (ev):

   -58.9518 -58.9518 -33.2843 -33.2843 -33.0806 -33.0806 -33.0742 -33.0742
   -10.2776 -10.2274 -10.1536 -10.1238  -3.6391  -3.4949  -3.2689  -3.2591
    -2.2708  -1.9844  -1.3979  -1.2147  -0.5758  -0.4345  -0.1977   0.0361
     1.4553   1.5455

     occupation numbers 
     1.0000   1.0000   1.0000   1.0000   1.0000   1.0000   1.0000   1.0000
     1.0000   1.0000   1.0000   1.0000   1.0000   1.0000   1.0000   1.0000
     1.0000   1.0000   1.0000   1.0000   1.0000   1.0000   1.0000   1.0000
     1.0000   1.0000

          k = 0.2500 0.4330 0.0000 ( 37389 PWs)   bands (ev):

   -58.9541 -58.9541 -33.2448 -33.2448 -33.0936 -33.0936 -33.0788 -33.0788
   -10.4423 -10.3672 -10.2221 -10.1602  -3.3715  -3.2316  -3.1163  -3.0567
    -1.8709  -1.8009  -1.5106  -1.2360  -1.1198  -0.9762   0.0827   0.2722
     1.2738   1.3233

     occupation numbers 
     1.0000   1.0000   1.0000   1.0000   1.0000   1.0000   1.0000   1.0000
     1.0000   1.0000   1.0000   1.0000   1.0000   1.0000   1.0000   1.0000
     1.0000   1.0000   1.0000   1.0000   1.0000   1.0000   1.0000   1.0000
     1.0000   1.0000

          k = 0.2500 0.4330 0.0417 ( 37348 PWs)   bands (ev):

   -58.9541 -58.9541 -33.2448 -33.2448 -33.0936 -33.0936 -33.0788 -33.0788
   -10.4423 -10.3672 -10.2221 -10.1602  -3.3715  -3.2316  -3.1163  -3.0567
    -1.8709  -1.8009  -1.5106  -1.2360  -1.1198  -0.9762   0.0827   0.2722
     1.2738   1.3233

     occupation numbers 
     1.0000   1.0000   1.0000   1.0000   1.0000   1.0000   1.0000   1.0000
     1.0000   1.0000   1.0000   1.0000   1.0000   1.0000   1.0000   1.0000
     1.0000   1.0000   1.0000   1.0000   1.0000   1.0000   1.0000   1.0000
     1.0000   1.0000

          k = 0.2500 0.5292 0.0000 ( 37341 PWs)   bands (ev):

   -58.9505 -58.9505 -33.2495 -33.2495 -33.1321 -33.1321 -33.0716 -33.0716
   -10.2029 -10.1606 -10.1045 -10.0806  -3.4796  -3.4017  -3.2166  -3.1224
    -2.0893  -1.9067  -1.5194  -1.3720  -1.2327  -1.0442  -0.2609  -0.0366
     1.5625   1.6446

     occupation numbers 
     1.0000   1.0000   1.0000   1.0000   1.0000   1.0000   1.0000   1.0000
     1.0000   1.0000   1.0000   1.0000   1.0000   1.0000   1.0000   1.0000
     1.0000   1.0000   1.0000   1.0000   1.0000   1.0000   1.0000   1.0000
     1.0000   1.0000

          k = 0.2500 0.5292 0.0417 ( 37364 PWs)   bands (ev):

   -58.9505 -58.9505 -33.2495 -33.2495 -33.1321 -33.1321 -33.0716 -33.0716
   -10.2029 -10.1606 -10.1045 -10.0806  -3.4796  -3.4017  -3.2166  -3.1224
    -2.0893  -1.9067  -1.5194  -1.3720  -1.2327  -1.0442  -0.2609  -0.0366
     1.5625   1.6446

     occupation numbers 
     1.0000   1.0000   1.0000   1.0000   1.0000   1.0000   1.0000   1.0000
     1.0000   1.0000   1.0000   1.0000   1.0000   1.0000   1.0000   1.0000
     1.0000   1.0000   1.0000   1.0000   1.0000   1.0000   1.0000   1.0000
     1.0000   1.0000

          k = 0.3333 0.5774 0.0000 ( 37347 PWs)   bands (ev):

   -58.9491 -58.9491 -33.2202 -33.2202 -33.1776 -33.1776 -33.0690 -33.0690
   -10.1003 -10.1003 -10.0524 -10.0524  -3.6251  -3.5399  -2.7951  -2.7951
    -2.2987  -2.1663  -1.7378  -1.7378  -1.0646  -1.0646  -0.3066  -0.3066
     1.7476   1.8313

     occupation numbers 
     1.0000   1.0000   1.0000   1.0000   1.0000   1.0000   1.0000   1.0000
     1.0000   1.0000   1.0000   1.0000   1.0000   1.0000   1.0000   1.0000
     1.0000   1.0000   1.0000   1.0000   1.0000   1.0000   1.0000   1.0000
     1.0000   1.0000

          k = 0.3333 0.5774 0.0417 ( 37347 PWs)   bands (ev):

   -58.9491 -58.9491 -33.2202 -33.2202 -33.1776 -33.1776 -33.0690 -33.0690
   -10.1003 -10.1003 -10.0524 -10.0524  -3.6251  -3.5399  -2.7951  -2.7951
    -2.2987  -2.1663  -1.7378  -1.7378  -1.0646  -1.0646  -0.3066  -0.3066
     1.7476   1.8313

     occupation numbers 
     1.0000   1.0000   1.0000   1.0000   1.0000   1.0000   1.0000   1.0000
     1.0000   1.0000   1.0000   1.0000   1.0000   1.0000   1.0000   1.0000
     1.0000   1.0000   1.0000   1.0000   1.0000   1.0000   1.0000   1.0000
     1.0000   1.0000

          k = 0.0000 0.0962-0.0417 ( 37207 PWs)   bands (ev):

   -58.9908 -58.9908 -33.1514 -33.1513 -32.9574 -32.9574 -32.9369 -32.9369
   -12.2409 -12.1021 -11.0466 -10.8377  -3.9641  -3.4380  -0.9836  -0.9727
    -0.8122  -0.6433  -0.6339  -0.2016   0.1859   0.2112   0.5119   0.8837
     1.5556   2.1157

     occupation numbers 
     1.0000   1.0000   1.0000   1.0000   1.0000   1.0000   1.0000   1.0000
     1.0000   1.0000   1.0000   1.0000   1.0000   1.0000   1.0000   1.0000
     1.0000   1.0000   1.0000   1.0000   1.0000   1.0000   1.0000   1.0000
     1.0000   1.0000

          k = 0.0000 0.1925-0.0417 ( 37261 PWs)   bands (ev):

   -58.9836 -58.9836 -33.1372 -33.1372 -33.0293 -33.0293 -32.9533 -32.9533
   -11.9449 -11.8091 -10.9128 -10.7235  -3.6608  -3.1490  -1.5320  -1.4938
    -1.3234  -0.8898  -0.3459  -0.3273  -0.2032  -0.1744   0.5519   0.9488
     1.4162   1.6674

     occupation numbers 
     1.0000   1.0000   1.0000   1.0000   1.0000   1.0000   1.0000   1.0000
     1.0000   1.0000   1.0000   1.0000   1.0000   1.0000   1.0000   1.0000
     1.0000   1.0000   1.0000   1.0000   1.0000   1.0000   1.0000   1.0000
     1.0000   1.0000

          k = 0.0000 0.2887-0.0417 ( 37286 PWs)   bands (ev):

   -58.9738 -58.9738 -33.1261 -33.1261 -33.1178 -33.1178 -32.9757 -32.9757
   -11.5043 -11.3769 -10.7149 -10.5572  -3.3917  -2.9926  -2.0946  -1.9238
    -1.8384  -1.5660  -0.6429  -0.6080   0.0726   0.1049   0.3204   0.6616
     1.0484   1.1138

     occupation numbers 
     1.0000   1.0000   1.0000   1.0000   1.0000   1.0000   1.0000   1.0000
     1.0000   1.0000   1.0000   1.0000   1.0000   1.0000   1.0000   1.0000
     1.0000   1.0000   1.0000   1.0000   1.0000   1.0000   1.0000   1.0000
     1.0000   1.0000

          k = 0.0000 0.3849-0.0417 ( 37339 PWs)   bands (ev):

   -58.9640 -58.9640 -33.2216 -33.2216 -33.0983 -33.0983 -32.9979 -32.9979
   -11.0050 -10.8950 -10.4940 -10.3780  -3.5271  -3.3153  -2.5506  -2.3234
    -2.1301  -1.8518  -1.0103  -0.9726   0.0315   0.3003   0.4814   0.5394
     0.7808   0.9062

     occupation numbers 
     1.0000   1.0000   1.0000   1.0000   1.0000   1.0000   1.0000   1.0000
     1.0000   1.0000   1.0000   1.0000   1.0000   1.0000   1.0000   1.0000
     1.0000   1.0000   1.0000   1.0000   1.0000   1.0000   1.0000   1.0000
     1.0000   1.0000

          k = 0.0000 0.4811-0.0417 ( 37368 PWs)   bands (ev):

   -58.9567 -58.9567 -33.2906 -33.2906 -33.0840 -33.0840 -33.0142 -33.0142
   -10.5813 -10.4993 -10.3102 -10.2413  -3.8745  -3.7119  -2.9347  -2.7738
    -2.2846  -1.9725  -1.2488  -1.2094  -0.1274   0.0601   0.7569   0.8433
     0.9555   1.0789

     occupation numbers 
     1.0000   1.0000   1.0000   1.0000   1.0000   1.0000   1.0000   1.0000
     1.0000   1.0000   1.0000   1.0000   1.0000   1.0000   1.0000   1.0000
     1.0000   1.0000   1.0000   1.0000   1.0000   1.0000   1.0000   1.0000
     1.0000   1.0000

          k =-0.0833 0.2406-0.0417 ( 37284 PWs)   bands (ev):

   -58.9774 -58.9774 -33.1249 -33.1249 -33.0861 -33.0861 -32.9723 -32.9723
   -11.6716 -11.5403 -10.7893 -10.6189  -3.4402  -2.9692  -1.8701  -1.8119
    -1.5916  -1.2419  -0.7670  -0.6941  -0.1362  -0.1176   0.6809   0.9603
     1.2245   1.3041

     occupation numbers 
     1.0000   1.0000   1.0000   1.0000   1.0000   1.0000   1.0000   1.0000
     1.0000   1.0000   1.0000   1.0000   1.0000   1.0000   1.0000   1.0000
     1.0000   1.0000   1.0000   1.0000   1.0000   1.0000   1.0000   1.0000
     1.0000   1.0000

          k =-0.0833 0.3368-0.0417 ( 37316 PWs)   bands (ev):

   -58.9676 -58.9676 -33.1781 -33.1781 -33.1054 -33.1054 -32.9988 -32.9988
   -11.1980 -11.0797 -10.5768 -10.4429  -3.3615  -3.0810  -2.2901  -2.0820
    -1.9956  -1.8114  -1.1606  -1.0329   0.0956   0.1208   0.4265   0.6086
     0.9420   0.9937

     occupation numbers 
     1.0000   1.0000   1.0000   1.0000   1.0000   1.0000   1.0000   1.0000
     1.0000   1.0000   1.0000   1.0000   1.0000   1.0000   1.0000   1.0000
     1.0000   1.0000   1.0000   1.0000   1.0000   1.0000   1.0000   1.0000
     1.0000   1.0000

          k =-0.0833 0.4330-0.0417 ( 37360 PWs)   bands (ev):

   -58.9590 -58.9590 -33.2567 -33.2567 -33.0885 -33.0885 -33.0216 -33.0216
   -10.7278 -10.6330 -10.3687 -10.2795  -3.6393  -3.4678  -2.7647  -2.6368
    -2.1742  -1.8800  -1.3246  -1.2115   0.0601   0.1916   0.2332   0.3031
     1.0627   1.1088

     occupation numbers 
     1.0000   1.0000   1.0000   1.0000   1.0000   1.0000   1.0000   1.0000
     1.0000   1.0000   1.0000   1.0000   1.0000   1.0000   1.0000   1.0000
     1.0000   1.0000   1.0000   1.0000   1.0000   1.0000   1.0000   1.0000
     1.0000   1.0000

          k =-0.0833 0.5292-0.0417 ( 37336 PWs)   bands (ev):

   -58.9541 -58.9541 -33.3017 -33.3017 -33.0788 -33.0787 -33.0348 -33.0348
   -10.4152 -10.3498 -10.2317 -10.1852  -3.8950  -3.7382  -3.0799  -2.9913
    -2.3189  -2.0124  -1.3566  -1.2925  -0.1359   0.0413   0.3103   0.4117
     1.2858   1.3589

     occupation numbers 
     1.0000   1.0000   1.0000   1.0000   1.0000   1.0000   1.0000   1.0000
     1.0000   1.0000   1.0000   1.0000   1.0000   1.0000   1.0000   1.0000
     1.0000   1.0000   1.0000   1.0000   1.0000   1.0000   1.0000   1.0000
     1.0000   1.0000

          k =-0.1667 0.3849-0.0417 ( 37328 PWs)   bands (ev):

   -58.9603 -58.9603 -33.2214 -33.2214 -33.0912 -33.0912 -33.0422 -33.0422
   -10.8126 -10.7111 -10.3988 -10.2977  -3.3900  -3.2054  -2.5757  -2.5192
    -2.0194  -1.8141  -1.5729  -1.2672  -0.4221  -0.3635   0.4300   0.5117
     1.0735   1.0845

     occupation numbers 
     1.0000   1.0000   1.0000   1.0000   1.0000   1.0000   1.0000   1.0000
     1.0000   1.0000   1.0000   1.0000   1.0000   1.0000   1.0000   1.0000
     1.0000   1.0000   1.0000   1.0000   1.0000   1.0000   1.0000   1.0000
     1.0000   1.0000

          k =-0.1667 0.4811-0.0417 ( 37302 PWs)   bands (ev):

   -58.9541 -58.9541 -33.2676 -33.2676 -33.0788 -33.0788 -33.0701 -33.0701
   -10.4335 -10.3614 -10.2255 -10.1683  -3.5666  -3.4202  -3.0826  -3.0612
    -2.1476  -1.8757  -1.4933  -1.2430  -0.5777  -0.4444   0.0023   0.1921
     1.2936   1.3574

     occupation numbers 
     1.0000   1.0000   1.0000   1.0000   1.0000   1.0000   1.0000   1.0000
     1.0000   1.0000   1.0000   1.0000   1.0000   1.0000   1.0000   1.0000
     1.0000   1.0000   1.0000   1.0000   1.0000   1.0000   1.0000   1.0000
     1.0000   1.0000

          k =-0.2500 0.5292-0.0417 ( 37364 PWs)   bands (ev):

   -58.9505 -58.9505 -33.2495 -33.2495 -33.1321 -33.1321 -33.0716 -33.0716
   -10.2029 -10.1606 -10.1045 -10.0806  -3.4796  -3.4017  -3.2166  -3.1224
    -2.0893  -1.9067  -1.5194  -1.3720  -1.2327  -1.0442  -0.2609  -0.0366
     1.5625   1.6446

     occupation numbers 
     1.0000   1.0000   1.0000   1.0000   1.0000   1.0000   1.0000   1.0000
     1.0000   1.0000   1.0000   1.0000   1.0000   1.0000   1.0000   1.0000
     1.0000   1.0000   1.0000   1.0000   1.0000   1.0000   1.0000   1.0000
     1.0000   1.0000

     highest occupied level (ev):     2.2498

!    total energy              =    -369.75454631 Ry
     estimated scf accuracy    <          1.7E-09 Ry

     The total energy is the sum of the following terms:
     one-electron contribution =   -2783.50305394 Ry
     hartree contribution      =    1397.87652304 Ry
     xc contribution           =     -66.64198079 Ry
     ewald contribution        =    1082.51396538 Ry

     convergence has been achieved in  15 iterations


     -----------------------------------------------
     Non-local corr. energy    =       0.58201672 Ry
     -----------------------------------------------


     Forces acting on atoms (cartesian axes, Ry/au):

     atom    1 type  2   force =    -0.00000000    0.00000000   -0.00106422
     atom    2 type  2   force =     0.00000000   -0.00000000    0.00106422
     atom    3 type  1   force =     0.00000000   -0.00000000   -0.00006118
     atom    4 type  1   force =     0.00000000    0.00000000    0.00006118
     atom    5 type  1   force =     0.00000000    0.00000000   -0.00095199
     atom    6 type  1   force =    -0.00000000   -0.00000000    0.00095199
     The non-local contrib.  to forces
     atom    1 type  2   force =    -0.00000000   -0.00000000   -0.00174918
     atom    2 type  2   force =     0.00000000    0.00000000    0.00174918
     atom    3 type  1   force =     0.00000000    0.00000000   -0.24580195
     atom    4 type  1   force =     0.00000000   -0.00000000    0.24580195
     atom    5 type  1   force =     0.00000000    0.00000000   -0.24719688
     atom    6 type  1   force =     0.00000000   -0.00000000    0.24719688
     The ionic contribution  to forces
     atom    1 type  2   force =     0.00000911   -0.00000526  -75.37080577
     atom    2 type  2   force =    -0.00000911    0.00000526   75.37080577
     atom    3 type  1   force =    -0.00000464    0.00000268   -1.80269089
     atom    4 type  1   force =     0.00000464   -0.00000268    1.80269089
     atom    5 type  1   force =     0.00000456   -0.00000263   62.76097242
     atom    6 type  1   force =    -0.00000456    0.00000263  -62.76097242
     The local contribution  to forces
     atom    1 type  2   force =     0.00014605   -0.00001205   75.37144255
     atom    2 type  2   force =    -0.00008346    0.00012046  -75.37144255
     atom    3 type  1   force =    -0.00000376    0.00000542    2.04300044
     atom    4 type  1   force =     0.00000657   -0.00000054   -2.04300044
     atom    5 type  1   force =     0.00000663   -0.00000055  -62.52032998
     atom    6 type  1   force =    -0.00000379    0.00000547   62.52032998
     The core correction contribution to forces
     atom    1 type  2   force =    -0.00000316    0.00000026    0.00007118
     atom    2 type  2   force =     0.00000181   -0.00000261   -0.00007118
     atom    3 type  1   force =     0.00000050   -0.00000073    0.00538987
     atom    4 type  1   force =    -0.00000088    0.00000007   -0.00538987
     atom    5 type  1   force =    -0.00000088    0.00000007    0.00556496
     atom    6 type  1   force =     0.00000050   -0.00000073   -0.00556496
     The Hubbard contrib.    to forces
     atom    1 type  2   force =     0.00000000    0.00000000    0.00000000
     atom    2 type  2   force =     0.00000000    0.00000000    0.00000000
     atom    3 type  1   force =     0.00000000    0.00000000    0.00000000
     atom    4 type  1   force =     0.00000000    0.00000000    0.00000000
     atom    5 type  1   force =     0.00000000    0.00000000    0.00000000
     atom    6 type  1   force =     0.00000000    0.00000000    0.00000000
     The SCF correction term to forces
     atom    1 type  2   force =     0.00000000   -0.00000000   -0.00002299
     atom    2 type  2   force =    -0.00000000    0.00000000    0.00002299
     atom    3 type  1   force =     0.00000000    0.00000000    0.00004135
     atom    4 type  1   force =     0.00000000    0.00000000   -0.00004135
     atom    5 type  1   force =     0.00000000    0.00000000    0.00003750
     atom    6 type  1   force =    -0.00000000    0.00000000   -0.00003750

     Total force =     0.002021     Total SCF correction =     0.000085


     Computing stress (Cartesian axis) and pressure



     -----------------------------------------------
     Non-local corr. energy    =       0.58201672 Ry
     -----------------------------------------------

          total   stress  (Ry/bohr**3)                   (kbar)     P=       -0.59
  -0.00000436   0.00000000   0.00000000           -0.64        0.00        0.00
   0.00000000  -0.00000436   0.00000000            0.00       -0.64        0.00
   0.00000000   0.00000000  -0.00000332            0.00        0.00       -0.49

     kinetic stress (kbar)   7867.23      0.00      0.00
                                0.00   7867.23     -0.00
                                0.00     -0.00   7911.38

     local   stress (kbar)-274118.49     -0.00     -0.00
                               -0.00-274118.50      0.00
                               -0.00      0.00 266783.62

     nonloc. stress (kbar)   6226.85     -0.00      0.00
                               -0.00   6226.85     -0.00
                                0.00     -0.00   6241.96

     hartree stress (kbar) 134653.98     -0.00     -0.00
                               -0.00 134653.98      0.00
                               -0.00      0.00-131386.33

     exc-cor stress (kbar)   -141.72      0.00      0.00
                                0.00   -141.72     -0.00
                                0.00     -0.00   -141.62

     corecor stress (kbar)  -1750.04     -0.00      0.00
                               -0.00  -1750.04     -0.00
                                0.00     -0.00  -1752.08

     ewald   stress (kbar) 127244.07      0.01      0.00
                                0.01 127244.08     -0.00
                                0.00     -0.00-147681.80

     hubbard stress (kbar)      0.00      0.00      0.00
                                0.00      0.00      0.00
                                0.00      0.00      0.00

     DFT-D   stress (kbar)      0.00      0.00      0.00
                                0.00      0.00      0.00
                                0.00      0.00      0.00

     XDM     stress (kbar)      0.00      0.00      0.00
                                0.00      0.00      0.00
                                0.00      0.00      0.00

     dft-nl  stress (kbar)     17.48     -0.00      0.00
                               -0.00     17.48     -0.00
                                0.00     -0.00     24.39

     TS-vdW  stress (kbar)      0.00      0.00      0.00
                                0.00      0.00      0.00
                                0.00      0.00      0.00

     MDB     stress (kbar)      0.00      0.00      0.00
                                0.00      0.00      0.00
                                0.00      0.00      0.00

     3D-RISM stress (kbar)      0.00      0.00      0.00
                                0.00      0.00      0.00
                                0.00      0.00      0.00


     BFGS Geometry Optimization
     Energy error            =      0.0E+00 Ry
     Gradient error          =      1.1E-03 Ry/Bohr
     Cell gradient error     =      6.4E-01 kbar

     number of scf cycles    =   1
     number of bfgs steps    =   0

     enthalpy           new  =    -369.7545463067 Ry

     new trust radius        =       0.0010642202 bohr
     new conv_thr            =       0.0000001000 Ry

     new unit-cell volume =   1490.50443 a.u.^3 (   220.86997 Ang^3 )
     density =      3.72856 g/cm^3

CELL_PARAMETERS (alat=  5.99258900)
   0.999890893   0.000000000   0.000000000
  -0.499945447   0.865930915   0.000000000
   0.000000000   0.000000000   7.999335906

ATOMIC_POSITIONS (crystal)
Mo            0.3333330000        0.6666667000       -0.1219191987
Mo            0.6666667000        0.3333330000        0.1219191987
S             0.6666667000        0.3333330000       -0.0600017762
S             0.3333330000        0.6666667000        0.0600017762
S             0.3333330000        0.6666667000        0.1837701423
S             0.6666667000        0.3333330000       -0.1837701423



     Writing config-only to output data dir ./tmp/MoS2_2L_pbe_nsoc.save/
     NEW-OLD atomic charge density approx. for the potential


     -----------------------------------------------
     Non-local corr. energy    =       0.58182798 Ry
     -----------------------------------------------

     extrapolated charge   51.98433, renormalised to   52.00000

     total cpu time spent up to now is      435.8 secs

     Self-consistent Calculation

     iteration #  1     ecut=   130.00 Ry     beta= 0.70
     Davidson diagonalization with overlap

---- Real-time Memory Report at c_bands before calling an iterative solver
             0 MiB given to the printing process from OS
             0 MiB allocation reported by mallinfo(arena+hblkhd)
             0 MiB available memory on the node where the printing process lives
------------------
     ethr =  1.00E-06,  avg # of iterations =  5.1


     -----------------------------------------------
     Non-local corr. energy    =       0.58202263 Ry
     -----------------------------------------------


     total cpu time spent up to now is      471.4 secs

     total energy              =    -369.75133231 Ry
     estimated scf accuracy    <       0.00320800 Ry

     iteration #  2     ecut=   130.00 Ry     beta= 0.70
     Davidson diagonalization with overlap

---- Real-time Memory Report at c_bands before calling an iterative solver
             0 MiB given to the printing process from OS
             0 MiB allocation reported by mallinfo(arena+hblkhd)
             0 MiB available memory on the node where the printing process lives
------------------
     ethr =  6.17E-06,  avg # of iterations =  6.8


     -----------------------------------------------
     Non-local corr. energy    =       0.58205141 Ry
     -----------------------------------------------


     total cpu time spent up to now is      513.8 secs

     total energy              =    -369.74474074 Ry
     estimated scf accuracy    <       0.15566607 Ry

     iteration #  3     ecut=   130.00 Ry     beta= 0.70
     Davidson diagonalization with overlap

---- Real-time Memory Report at c_bands before calling an iterative solver
             0 MiB given to the printing process from OS
             0 MiB allocation reported by mallinfo(arena+hblkhd)
             0 MiB available memory on the node where the printing process lives
------------------
     ethr =  6.17E-06,  avg # of iterations =  6.3


     -----------------------------------------------
     Non-local corr. energy    =       0.58203188 Ry
     -----------------------------------------------


     total cpu time spent up to now is      551.8 secs

     total energy              =    -369.75447949 Ry
     estimated scf accuracy    <       0.00503190 Ry

     iteration #  4     ecut=   130.00 Ry     beta= 0.70
     Davidson diagonalization with overlap

---- Real-time Memory Report at c_bands before calling an iterative solver
             0 MiB given to the printing process from OS
             0 MiB allocation reported by mallinfo(arena+hblkhd)
             0 MiB available memory on the node where the printing process lives
------------------
     ethr =  6.17E-06,  avg # of iterations =  1.7


     -----------------------------------------------
     Non-local corr. energy    =       0.58201360 Ry
     -----------------------------------------------


     total cpu time spent up to now is      571.6 secs

     total energy              =    -369.75445289 Ry
     estimated scf accuracy    <       0.00273499 Ry

     iteration #  5     ecut=   130.00 Ry     beta= 0.70
     Davidson diagonalization with overlap

---- Real-time Memory Report at c_bands before calling an iterative solver
             0 MiB given to the printing process from OS
             0 MiB allocation reported by mallinfo(arena+hblkhd)
             0 MiB available memory on the node where the printing process lives
------------------
     ethr =  5.26E-06,  avg # of iterations =  1.1


     -----------------------------------------------
     Non-local corr. energy    =       0.58197596 Ry
     -----------------------------------------------


     total cpu time spent up to now is      589.7 secs

     total energy              =    -369.75435745 Ry
     estimated scf accuracy    <       0.00181099 Ry

     iteration #  6     ecut=   130.00 Ry     beta= 0.70
     Davidson diagonalization with overlap

---- Real-time Memory Report at c_bands before calling an iterative solver
             0 MiB given to the printing process from OS
             0 MiB allocation reported by mallinfo(arena+hblkhd)
             0 MiB available memory on the node where the printing process lives
------------------
     ethr =  3.48E-06,  avg # of iterations =  2.4


     -----------------------------------------------
     Non-local corr. energy    =       0.58195788 Ry
     -----------------------------------------------


     total cpu time spent up to now is      610.5 secs

     total energy              =    -369.75442976 Ry
     estimated scf accuracy    <       0.00068336 Ry

     iteration #  7     ecut=   130.00 Ry     beta= 0.70
     Davidson diagonalization with overlap

---- Real-time Memory Report at c_bands before calling an iterative solver
             0 MiB given to the printing process from OS
             0 MiB allocation reported by mallinfo(arena+hblkhd)
             0 MiB available memory on the node where the printing process lives
------------------
     ethr =  1.31E-06,  avg # of iterations =  4.4


     -----------------------------------------------
     Non-local corr. energy    =       0.58196516 Ry
     -----------------------------------------------


     total cpu time spent up to now is      636.0 secs

     total energy              =    -369.75454751 Ry
     estimated scf accuracy    <       0.00008706 Ry

     iteration #  8     ecut=   130.00 Ry     beta= 0.70
     Davidson diagonalization with overlap

---- Real-time Memory Report at c_bands before calling an iterative solver
             0 MiB given to the printing process from OS
             0 MiB allocation reported by mallinfo(arena+hblkhd)
             0 MiB available memory on the node where the printing process lives
------------------
     ethr =  1.67E-07,  avg # of iterations =  3.1


     -----------------------------------------------
     Non-local corr. energy    =       0.58196826 Ry
     -----------------------------------------------


     total cpu time spent up to now is      658.9 secs

     total energy              =    -369.75456184 Ry
     estimated scf accuracy    <       0.00009639 Ry

     iteration #  9     ecut=   130.00 Ry     beta= 0.70
     Davidson diagonalization with overlap

---- Real-time Memory Report at c_bands before calling an iterative solver
             0 MiB given to the printing process from OS
             0 MiB allocation reported by mallinfo(arena+hblkhd)
             0 MiB available memory on the node where the printing process lives
------------------
     ethr =  1.67E-07,  avg # of iterations =  2.7


     -----------------------------------------------
     Non-local corr. energy    =       0.58196450 Ry
     -----------------------------------------------


[...]
    -1.8700  -1.7986  -1.5080  -1.2354  -1.1190  -0.9745   0.0862   0.2757
     1.2759   1.3258

     occupation numbers 
     1.0000   1.0000   1.0000   1.0000   1.0000   1.0000   1.0000   1.0000
     1.0000   1.0000   1.0000   1.0000   1.0000   1.0000   1.0000   1.0000
     1.0000   1.0000   1.0000   1.0000   1.0000   1.0000   1.0000   1.0000
     1.0000   1.0000

          k = 0.2500 0.5293-0.0000 ( 37325 PWs)   bands (ev):

   -58.9462 -58.9462 -33.2462 -33.2462 -33.1285 -33.1285 -33.0679 -33.0679
   -10.2003 -10.1594 -10.1042 -10.0789  -3.4799  -3.4029  -3.2170  -3.1222
    -2.0881  -1.9061  -1.5175  -1.3711  -1.2303  -1.0425  -0.2577  -0.0334
     1.5650   1.6472

     occupation numbers 
     1.0000   1.0000   1.0000   1.0000   1.0000   1.0000   1.0000   1.0000
     1.0000   1.0000   1.0000   1.0000   1.0000   1.0000   1.0000   1.0000
     1.0000   1.0000   1.0000   1.0000   1.0000   1.0000   1.0000   1.0000
     1.0000   1.0000

          k = 0.2500 0.5293 0.0417 ( 37343 PWs)   bands (ev):

   -58.9462 -58.9462 -33.2462 -33.2462 -33.1285 -33.1285 -33.0679 -33.0679
   -10.2003 -10.1594 -10.1042 -10.0789  -3.4799  -3.4029  -3.2170  -3.1222
    -2.0881  -1.9061  -1.5175  -1.3711  -1.2303  -1.0425  -0.2577  -0.0334
     1.5650   1.6472

     occupation numbers 
     1.0000   1.0000   1.0000   1.0000   1.0000   1.0000   1.0000   1.0000
     1.0000   1.0000   1.0000   1.0000   1.0000   1.0000   1.0000   1.0000
     1.0000   1.0000   1.0000   1.0000   1.0000   1.0000   1.0000   1.0000
     1.0000   1.0000

          k = 0.3334 0.5775-0.0000 ( 37335 PWs)   bands (ev):

   -58.9449 -58.9449 -33.2168 -33.2168 -33.1741 -33.1741 -33.0653 -33.0653
   -10.0978 -10.0978 -10.0519 -10.0519  -3.6260  -3.5412  -2.7945  -2.7945
    -2.2985  -2.1658  -1.7363  -1.7363  -1.0625  -1.0625  -0.3035  -0.3035
     1.7502   1.8343

     occupation numbers 
     1.0000   1.0000   1.0000   1.0000   1.0000   1.0000   1.0000   1.0000
     1.0000   1.0000   1.0000   1.0000   1.0000   1.0000   1.0000   1.0000
     1.0000   1.0000   1.0000   1.0000   1.0000   1.0000   1.0000   1.0000
     1.0000   1.0000

          k = 0.3334 0.5775 0.0417 ( 37317 PWs)   bands (ev):

   -58.9449 -58.9449 -33.2168 -33.2168 -33.1741 -33.1741 -33.0653 -33.0653
   -10.0978 -10.0978 -10.0519 -10.0519  -3.6260  -3.5412  -2.7945  -2.7945
    -2.2985  -2.1658  -1.7363  -1.7363  -1.0625  -1.0625  -0.3035  -0.3035
     1.7502   1.8343

     occupation numbers 
     1.0000   1.0000   1.0000   1.0000   1.0000   1.0000   1.0000   1.0000
     1.0000   1.0000   1.0000   1.0000   1.0000   1.0000   1.0000   1.0000
     1.0000   1.0000   1.0000   1.0000   1.0000   1.0000   1.0000   1.0000
     1.0000   1.0000

          k =-0.0000 0.0962-0.0417 ( 37193 PWs)   bands (ev):

   -58.9867 -58.9867 -33.1479 -33.1478 -32.9534 -32.9534 -32.9328 -32.9328
   -12.2412 -12.1027 -11.0453 -10.8360  -3.9638  -3.4387  -0.9833  -0.9727
    -0.8109  -0.6428  -0.6336  -0.1996   0.1873   0.2126   0.5135   0.8889
     1.5604   2.1174

     occupation numbers 
     1.0000   1.0000   1.0000   1.0000   1.0000   1.0000   1.0000   1.0000
     1.0000   1.0000   1.0000   1.0000   1.0000   1.0000   1.0000   1.0000
     1.0000   1.0000   1.0000   1.0000   1.0000   1.0000   1.0000   1.0000
     1.0000   1.0000

          k =-0.0000 0.1925-0.0417 ( 37241 PWs)   bands (ev):

   -58.9795 -58.9795 -33.1336 -33.1336 -33.0254 -33.0254 -32.9493 -32.9493
   -11.9448 -11.8095 -10.9117 -10.7218  -3.6605  -3.1497  -1.5317  -1.4938
    -1.3218  -0.8889  -0.3444  -0.3270  -0.2028  -0.1729   0.5539   0.9543
     1.4206   1.6695

     occupation numbers 
     1.0000   1.0000   1.0000   1.0000   1.0000   1.0000   1.0000   1.0000
     1.0000   1.0000   1.0000   1.0000   1.0000   1.0000   1.0000   1.0000
     1.0000   1.0000   1.0000   1.0000   1.0000   1.0000   1.0000   1.0000
     1.0000   1.0000

          k =-0.0000 0.2887-0.0417 ( 37269 PWs)   bands (ev):

   -58.9696 -58.9696 -33.1225 -33.1225 -33.1142 -33.1141 -32.9717 -32.9717
   -11.5038 -11.3769 -10.7139 -10.5556  -3.3917  -2.9937  -2.0942  -1.9231
    -1.8361  -1.5659  -0.6418  -0.6073   0.0737   0.1063   0.3229   0.6664
     1.0517   1.1160

     occupation numbers 
     1.0000   1.0000   1.0000   1.0000   1.0000   1.0000   1.0000   1.0000
     1.0000   1.0000   1.0000   1.0000   1.0000   1.0000   1.0000   1.0000
     1.0000   1.0000   1.0000   1.0000   1.0000   1.0000   1.0000   1.0000
     1.0000   1.0000

          k =-0.0000 0.3850-0.0417 ( 37329 PWs)   bands (ev):

   -58.9597 -58.9597 -33.2182 -33.2182 -33.0946 -33.0946 -32.9940 -32.9940
   -11.0039 -10.8946 -10.4931 -10.3764  -3.5274  -3.3163  -2.5503  -2.3223
    -2.1285  -1.8509  -1.0095  -0.9721   0.0340   0.3045   0.4833   0.5415
     0.7838   0.9080

     occupation numbers 
     1.0000   1.0000   1.0000   1.0000   1.0000   1.0000   1.0000   1.0000
     1.0000   1.0000   1.0000   1.0000   1.0000   1.0000   1.0000   1.0000
     1.0000   1.0000   1.0000   1.0000   1.0000   1.0000   1.0000   1.0000
     1.0000   1.0000

          k =-0.0000 0.4812-0.0417 ( 37343 PWs)   bands (ev):

   -58.9525 -58.9525 -33.2873 -33.2873 -33.0803 -33.0803 -33.0103 -33.0103
   -10.5795 -10.4986 -10.3096 -10.2396  -3.8747  -3.7125  -2.9343  -2.7732
    -2.2833  -1.9721  -1.2482  -1.2090  -0.1247   0.0637   0.7592   0.8459
     0.9585   1.0812

     occupation numbers 
     1.0000   1.0000   1.0000   1.0000   1.0000   1.0000   1.0000   1.0000
     1.0000   1.0000   1.0000   1.0000   1.0000   1.0000   1.0000   1.0000
     1.0000   1.0000   1.0000   1.0000   1.0000   1.0000   1.0000   1.0000
     1.0000   1.0000

          k =-0.0833 0.2406-0.0417 ( 37268 PWs)   bands (ev):

   -58.9732 -58.9732 -33.1213 -33.1213 -33.0824 -33.0824 -32.9683 -32.9683
   -11.6712 -11.5405 -10.7882 -10.6173  -3.4399  -2.9701  -1.8700  -1.8112
    -1.5898  -1.2415  -0.7659  -0.6933  -0.1354  -0.1162   0.6832   0.9656
     1.2284   1.3061

     occupation numbers 
     1.0000   1.0000   1.0000   1.0000   1.0000   1.0000   1.0000   1.0000
     1.0000   1.0000   1.0000   1.0000   1.0000   1.0000   1.0000   1.0000
     1.0000   1.0000   1.0000   1.0000   1.0000   1.0000   1.0000   1.0000
     1.0000   1.0000

          k =-0.0833 0.3369-0.0417 ( 37296 PWs)   bands (ev):

   -58.9634 -58.9634 -33.1746 -33.1746 -33.1018 -33.1018 -32.9949 -32.9949
   -11.1971 -11.0794 -10.5759 -10.4413  -3.3616  -3.0822  -2.2901  -2.0803
    -1.9939  -1.8108  -1.1598  -1.0321   0.0971   0.1226   0.4291   0.6130
     0.9451   0.9957

     occupation numbers 
     1.0000   1.0000   1.0000   1.0000   1.0000   1.0000   1.0000   1.0000
     1.0000   1.0000   1.0000   1.0000   1.0000   1.0000   1.0000   1.0000
     1.0000   1.0000   1.0000   1.0000   1.0000   1.0000   1.0000   1.0000
     1.0000   1.0000

          k =-0.0833 0.4331-0.0417 ( 37340 PWs)   bands (ev):

   -58.9548 -58.9548 -33.2534 -33.2534 -33.0848 -33.0848 -33.0177 -33.0177
   -10.7263 -10.6324 -10.3680 -10.2779  -3.6395  -3.4685  -2.7646  -2.6364
    -2.1726  -1.8791  -1.3240  -1.2107   0.0627   0.1944   0.2359   0.3059
     1.0655   1.1109

     occupation numbers 
     1.0000   1.0000   1.0000   1.0000   1.0000   1.0000   1.0000   1.0000
     1.0000   1.0000   1.0000   1.0000   1.0000   1.0000   1.0000   1.0000
     1.0000   1.0000   1.0000   1.0000   1.0000   1.0000   1.0000   1.0000
     1.0000   1.0000

          k =-0.0833 0.5293-0.0417 ( 37323 PWs)   bands (ev):

   -58.9498 -58.9498 -33.2984 -33.2984 -33.0750 -33.0750 -33.0309 -33.0309
   -10.4131 -10.3489 -10.2312 -10.1836  -3.8950  -3.7386  -3.0797  -2.9911
    -2.3177  -2.0121  -1.3561  -1.2916  -0.1329   0.0446   0.3127   0.4142
     1.2888   1.3613

     occupation numbers 
     1.0000   1.0000   1.0000   1.0000   1.0000   1.0000   1.0000   1.0000
     1.0000   1.0000   1.0000   1.0000   1.0000   1.0000   1.0000   1.0000
     1.0000   1.0000   1.0000   1.0000   1.0000   1.0000   1.0000   1.0000
     1.0000   1.0000

          k =-0.1667 0.3850-0.0417 ( 37311 PWs)   bands (ev):

   -58.9561 -58.9561 -33.2180 -33.2180 -33.0875 -33.0875 -33.0383 -33.0383
   -10.8112 -10.7105 -10.3980 -10.2961  -3.3901  -3.2063  -2.5763  -2.5190
    -2.0179  -1.8122  -1.5712  -1.2665  -0.4207  -0.3619   0.4334   0.5154
     1.0757   1.0869

     occupation numbers 
     1.0000   1.0000   1.0000   1.0000   1.0000   1.0000   1.0000   1.0000
     1.0000   1.0000   1.0000   1.0000   1.0000   1.0000   1.0000   1.0000
     1.0000   1.0000   1.0000   1.0000   1.0000   1.0000   1.0000   1.0000
     1.0000   1.0000

          k =-0.1667 0.4812-0.0417 ( 37294 PWs)   bands (ev):

   -58.9498 -58.9498 -33.2643 -33.2643 -33.0751 -33.0750 -33.0664 -33.0664
   -10.4314 -10.3605 -10.2250 -10.1666  -3.5665  -3.4207  -3.0833  -3.0615
    -2.1461  -1.8749  -1.4922  -1.2415  -0.5761  -0.4423   0.0056   0.1955
     1.2962   1.3597

     occupation numbers 
     1.0000   1.0000   1.0000   1.0000   1.0000   1.0000   1.0000   1.0000
     1.0000   1.0000   1.0000   1.0000   1.0000   1.0000   1.0000   1.0000
     1.0000   1.0000   1.0000   1.0000   1.0000   1.0000   1.0000   1.0000
     1.0000   1.0000

          k =-0.2500 0.5293-0.0417 ( 37343 PWs)   bands (ev):

   -58.9462 -58.9462 -33.2462 -33.2462 -33.1285 -33.1285 -33.0679 -33.0679
   -10.2003 -10.1594 -10.1042 -10.0789  -3.4799  -3.4029  -3.2170  -3.1222
    -2.0881  -1.9061  -1.5175  -1.3711  -1.2303  -1.0425  -0.2577  -0.0334
     1.5650   1.6472

     occupation numbers 
     1.0000   1.0000   1.0000   1.0000   1.0000   1.0000   1.0000   1.0000
     1.0000   1.0000   1.0000   1.0000   1.0000   1.0000   1.0000   1.0000
     1.0000   1.0000   1.0000   1.0000   1.0000   1.0000   1.0000   1.0000
     1.0000   1.0000

     highest occupied level (ev):     2.2513

!    total energy              =    -369.75455035 Ry
     estimated scf accuracy    <          9.8E-10 Ry

     The total energy is the sum of the following terms:
     one-electron contribution =   -2784.09086908 Ry
     hartree contribution      =    1398.17580802 Ry
     xc contribution           =     -66.64532857 Ry
     ewald contribution        =    1082.80583927 Ry

     convergence has been achieved in  21 iterations


     -----------------------------------------------
     Non-local corr. energy    =       0.58187416 Ry
     -----------------------------------------------


     Forces acting on atoms (cartesian axes, Ry/au):

     atom    1 type  2   force =     0.00000000   -0.00000000    0.00003358
     atom    2 type  2   force =    -0.00000000    0.00000000   -0.00003358
     atom    3 type  1   force =    -0.00000000   -0.00000000   -0.00007578
     atom    4 type  1   force =     0.00000000   -0.00000000    0.00007578
     atom    5 type  1   force =     0.00000000    0.00000000    0.00010011
     atom    6 type  1   force =     0.00000000    0.00000000   -0.00010011
     The non-local contrib.  to forces
     atom    1 type  2   force =    -0.00000000    0.00000000   -0.00226535
     atom    2 type  2   force =     0.00000000   -0.00000000    0.00226535
     atom    3 type  1   force =    -0.00000000   -0.00000000   -0.24573072
     atom    4 type  1   force =     0.00000000    0.00000000    0.24573072
     atom    5 type  1   force =    -0.00000000   -0.00000000   -0.24647926
     atom    6 type  1   force =     0.00000000   -0.00000000    0.24647926
     The ionic contribution  to forces
     atom    1 type  2   force =     0.00000912   -0.00000527  -75.39268648
     atom    2 type  2   force =    -0.00000912    0.00000527   75.39268648
     atom    3 type  1   force =    -0.00000463    0.00000267   -1.79831252
     atom    4 type  1   force =     0.00000463   -0.00000267    1.79831252
     atom    5 type  1   force =     0.00000457   -0.00000264   62.78456178
     atom    6 type  1   force =    -0.00000457    0.00000264  -62.78456178
     The local contribution  to forces
     atom    1 type  2   force =     0.00014601   -0.00001204   75.39473302
     atom    2 type  2   force =    -0.00008343    0.00012042  -75.39473302
     atom    3 type  1   force =    -0.00000376    0.00000542    2.03853777
     atom    4 type  1   force =     0.00000657   -0.00000054   -2.03853777
     atom    5 type  1   force =     0.00000663   -0.00000055  -62.54347208
     atom    6 type  1   force =    -0.00000379    0.00000546   62.54347208
     The core correction contribution to forces
     atom    1 type  2   force =    -0.00000316    0.00000026    0.00010011
     atom    2 type  2   force =     0.00000181   -0.00000261   -0.00010011
     atom    3 type  1   force =     0.00000050   -0.00000073    0.00538467
     atom    4 type  1   force =    -0.00000088    0.00000007   -0.00538467
     atom    5 type  1   force =    -0.00000088    0.00000007    0.00551427
     atom    6 type  1   force =     0.00000050   -0.00000073   -0.00551427
     The Hubbard contrib.    to forces
     atom    1 type  2   force =     0.00000000    0.00000000    0.00000000
     atom    2 type  2   force =     0.00000000    0.00000000    0.00000000
     atom    3 type  1   force =     0.00000000    0.00000000    0.00000000
     atom    4 type  1   force =     0.00000000    0.00000000    0.00000000
     atom    5 type  1   force =     0.00000000    0.00000000    0.00000000
     atom    6 type  1   force =     0.00000000    0.00000000    0.00000000
     The SCF correction term to forces
     atom    1 type  2   force =     0.00000000   -0.00000000    0.00015227
     atom    2 type  2   force =    -0.00000000    0.00000000   -0.00015227
     atom    3 type  1   force =    -0.00000000    0.00000000    0.00004502
     atom    4 type  1   force =     0.00000000   -0.00000000   -0.00004502
     atom    5 type  1   force =     0.00000000   -0.00000000   -0.00002461
     atom    6 type  1   force =    -0.00000000    0.00000000    0.00002461

     Total force =     0.000184     Total SCF correction =     0.000227
     SCF correction compared to forces is large: reduce conv_thr to get better values


     Computing stress (Cartesian axis) and pressure



     -----------------------------------------------
     Non-local corr. energy    =       0.58187416 Ry
     -----------------------------------------------

          total   stress  (Ry/bohr**3)                   (kbar)     P=       -0.10
  -0.00000141  -0.00000000  -0.00000000           -0.21       -0.00       -0.00
  -0.00000000  -0.00000141  -0.00000000           -0.00       -0.21       -0.00
  -0.00000000  -0.00000000   0.00000078           -0.00       -0.00        0.11

     kinetic stress (kbar)   7871.39     -0.00     -0.00
                               -0.00   7871.39     -0.00
                               -0.00     -0.00   7915.82

     local   stress (kbar)-274310.69     -0.00     -0.00
                               -0.00-274310.70      0.00
                               -0.00      0.00 266978.04

     nonloc. stress (kbar)   6229.90      0.00      0.00
                                0.00   6229.90     -0.00
                                0.00     -0.00   6245.04

     hartree stress (kbar) 134747.79     -0.00      0.00
                               -0.00 134747.79      0.00
                                0.00      0.00-131480.11

     exc-cor stress (kbar)   -141.88      0.00      0.00
                                0.00   -141.88     -0.00
                                0.00     -0.00   -141.79

     corecor stress (kbar)  -1750.87     -0.00      0.00
                               -0.00  -1750.87     -0.00
                                0.00     -0.00  -1752.91

     ewald   stress (kbar) 127336.66      0.01      0.00
                                0.01 127336.67     -0.00
                                0.00     -0.00-147788.38

     hubbard stress (kbar)      0.00      0.00      0.00
                                0.00      0.00      0.00
                                0.00      0.00      0.00

     DFT-D   stress (kbar)      0.00      0.00      0.00
                                0.00      0.00      0.00
                                0.00      0.00      0.00

     XDM     stress (kbar)      0.00      0.00      0.00
                                0.00      0.00      0.00
                                0.00      0.00      0.00

     dft-nl  stress (kbar)     17.49     -0.00      0.00
                               -0.00     17.49     -0.00
                                0.00     -0.00     24.40

     TS-vdW  stress (kbar)      0.00      0.00      0.00
                                0.00      0.00      0.00
                                0.00      0.00      0.00

     MDB     stress (kbar)      0.00      0.00      0.00
                                0.00      0.00      0.00
                                0.00      0.00      0.00

     3D-RISM stress (kbar)      0.00      0.00      0.00
                                0.00      0.00      0.00
                                0.00      0.00      0.00


     Writing all to output data dir ./tmp/MoS2_2L_pbe_nsoc.save/

     init_run     :     37.19s CPU     34.56s WALL (       2 calls)
     electrons    :   2799.85s CPU   2481.41s WALL (       4 calls)
     update_pot   :     10.04s CPU     10.48s WALL (       2 calls)
     forces       :     32.15s CPU     26.56s WALL (       4 calls)
     stress       :    151.95s CPU    158.11s WALL (       4 calls)

     Called by init_run:
     wfcinit      :     22.10s CPU     19.23s WALL (       2 calls)
     wfcinit:atom :      0.38s CPU      0.42s WALL (     100 calls)
     wfcinit:wfcr :     20.43s CPU     17.49s WALL (     100 calls)
     potinit      :     11.46s CPU     11.65s WALL (       2 calls)
     hinit0       :      3.44s CPU      3.48s WALL (       2 calls)

     Called by electrons:
     c_bands      :   2441.25s CPU   2108.58s WALL (      76 calls)
     sum_band     :    311.45s CPU    320.34s WALL (      76 calls)
     v_of_rho     :     55.28s CPU     60.03s WALL (      80 calls)
     v_h          :      0.61s CPU      0.62s WALL (      80 calls)
     v_xc         :     59.67s CPU     64.86s WALL (      88 calls)
     mix_rho      :      2.66s CPU      3.48s WALL (      76 calls)
     vdW_kernel   :      8.77s CPU      8.83s WALL (       1 calls)

     Called by c_bands:
     init_us_2    :     46.47s CPU     47.73s WALL (    8100 calls)
     init_us_2:cp :     46.43s CPU     47.69s WALL (    8100 calls)
     cegterg      :   2333.82s CPU   1997.94s WALL (    3800 calls)

     Called by sum_band:
     sum_band:wei :      0.00s CPU      0.00s WALL (      76 calls)
     sum_band:loo :    310.29s CPU    319.04s WALL (      76 calls)
     sum_band:buf :      6.89s CPU      7.03s WALL (    3800 calls)
     sum_band:ini :     22.51s CPU     22.97s WALL (    3800 calls)

     Called by *egterg:
     cdiaghg      :     17.56s CPU     18.02s WALL (   17995 calls)
     cegterg:over :    142.68s CPU     91.62s WALL (   14295 calls)
     cegterg:upda :    100.78s CPU     53.72s WALL (   14295 calls)
     cegterg:last :    154.01s CPU     87.24s WALL (    9414 calls)
     h_psi        :   1882.58s CPU   1705.92s WALL (   18195 calls)
     g_psi        :      7.97s CPU      8.97s WALL (   14295 calls)

     Called by h_psi:
     h_psi:calbec :    256.99s CPU    143.01s WALL (   18195 calls)
     vloc_psi     :   1378.89s CPU   1425.18s WALL (   18195 calls)
     add_vuspsi   :    232.54s CPU    122.80s WALL (   18195 calls)

     General routines
     calbec       :    277.48s CPU    154.44s WALL (   19195 calls)
     fft          :     27.13s CPU     27.94s WALL (    5474 calls)
     ffts         :      0.33s CPU      0.37s WALL (      76 calls)
     fftw         :   1235.20s CPU   1273.39s WALL (  682306 calls)

     Parallel routines

     PWSCF        :  50m31.84s CPU  45m12.20s WALL


   This run was terminated on:  11:32: 9  18Apr2024            

=------------------------------------------------------------------------------=
   JOB DONE.
=------------------------------------------------------------------------------=
