
     Program PWSCF v.7.2 starts on 18Apr2024 at 11:37:59 

     This program is part of the open-source Quantum ESPRESSO suite
     for quantum simulation of materials; please cite
         "P. Giannozzi et al., J. Phys.:Condens. Matter 21 395502 (2009);
         "P. Giannozzi et al., J. Phys.:Condens. Matter 29 465901 (2017);
         "P. Giannozzi et al., J. Chem. Phys. 152 154105 (2020);
          URL http://www.quantum-espresso.org", 
     in publications or presentations arising from this work. More details at
     http://www.quantum-espresso.org/quote

     Parallel version (MPI & OpenMP), running on       8 processor cores
     Number of MPI processes:                 8
     Threads/MPI process:                     1

     MPI processes distributed on     1 nodes
     0 MiB available memory on the printing compute node when the environment starts

     Waiting for input...
     Reading input from standard input
Warning: card &CELL ignored
Warning: card     CELL_DYNAMICS = 'BFGS' ignored
Warning: card     CELL_DOFREE = 'ALL' ignored
Warning: card / ignored

     Current dimensions of program PWSCF are:
     Max number of different atomic species (ntypx) = 10
     Max number of k-points (npk) =  40000
     Max angular momentum in pseudopotentials (lmaxx) =  4

     IMPORTANT: XC functional enforced from input :
     Exchange-correlation= VDW-DF2-B86R
                           (   1   4  26   0   2   0   0)
     Any further DFT definition will be discarded
     Please, verify this is what you really want


     R & G space division:  proc/nbgrp/npool/nimage =       8
     Subspace diagonalization in iterative solution of the eigenvalue problem:
     a serial algorithm will be used


     Parallelization info
     --------------------
     sticks:   dense  smooth     PW     G-vecs:    dense   smooth      PW
     Min         160     160     45                37290    37290    5571
     Max         161     161     46                37321    37321    5602
     Sum        1285    1285    361               298475   298475   44693

     Using Slab Decomposition



     bravais-lattice index     =            4
     lattice parameter (alat)  =       5.9915  a.u.
     unit-cell volume          =    1490.1169 (a.u.)^3
     number of atoms/cell      =            6
     number of atomic types    =            2
     number of electrons       =        52.00
     number of Kohn-Sham states=           26
     kinetic-energy cutoff     =     130.0000  Ry
     charge density cutoff     =     520.0000  Ry
     scf convergence threshold =      1.0E-07
     mixing beta               =       0.7000
     number of iterations used =            8  plain     mixing
     energy convergence thresh.=      1.0E-05
     force convergence thresh. =      1.0E-04
     Exchange-correlation= VDW-DF2-B86R
                           (   1   4  26   0   2   0   0)
     nstep                     =           50


     celldm(1)=   5.991468  celldm(2)=   0.000000  celldm(3)=   8.000000
     celldm(4)=   0.000000  celldm(5)=   0.000000  celldm(6)=   0.000000

     crystal axes: (cart. coord. in units of alat)
               a(1) = (   1.000000   0.000000   0.000000 )  
               a(2) = (  -0.500000   0.866025   0.000000 )  
               a(3) = (   0.000000   0.000000   8.000000 )  

     reciprocal axes: (cart. coord. in units 2 pi/alat)
               b(1) = (  1.000000  0.577350 -0.000000 )  
               b(2) = (  0.000000  1.154701  0.000000 )  
               b(3) = (  0.000000 -0.000000  0.125000 )  


     PseudoPot. # 1 for S  read from file:
     ../../../Pseudo/PBE/S.upf
     MD5 check sum: b72b6a9ca752e39de1a6cc592280dae2
     Pseudo is Norm-conserving + core correction, Zval =  6.0
     Generated using ONCVPSP code by D. R. Hamann
     Using radial grid of 1148 points,  6 beta functions with: 
                l(1) =   0
                l(2) =   0
                l(3) =   1
                l(4) =   1
                l(5) =   2
                l(6) =   2

     PseudoPot. # 2 for Mo read from file:
     ../../../Pseudo/PBE/Mo.upf
     MD5 check sum: 7ca7a9feba7bf08d88d14bc7fbf60c1e
     Pseudo is Norm-conserving + core correction, Zval = 14.0
     Generated using ONCVPSP code by D. R. Hamann
     Using radial grid of 1640 points,  6 beta functions with: 
                l(1) =   0
                l(2) =   0
                l(3) =   1
                l(4) =   1
                l(5) =   2
                l(6) =   2

     atomic species   valence    mass     pseudopotential
        S              6.00    32.06500     S ( 1.00)
        Mo            14.00   183.84000     Mo( 1.00)

     12 Sym. Ops., with inversion, found


                                    s                        frac. trans.

      isym =  1     identity                                     

 cryst.   s( 1) = (     1          0          0      )
                  (     0          1          0      )
                  (     0          0          1      )

 cart.    s( 1) = (  1.0000000  0.0000000  0.0000000 )
                  (  0.0000000  1.0000000  0.0000000 )
                  (  0.0000000  0.0000000  1.0000000 )


      isym =  2     180 deg rotation - cart. axis [1,0,0]        

 cryst.   s( 2) = (     1          0          0      )
                  (    -1         -1          0      )
                  (     0          0         -1      )

 cart.    s( 2) = (  1.0000000  0.0000000  0.0000000 )
                  (  0.0000000 -1.0000000  0.0000000 )
                  (  0.0000000  0.0000000 -1.0000000 )


      isym =  3     120 deg rotation - cryst. axis [0,0,1]       

 cryst.   s( 3) = (     0          1          0      )
                  (    -1         -1          0      )
                  (     0          0          1      )

 cart.    s( 3) = ( -0.5000000 -0.8660254  0.0000000 )
                  (  0.8660254 -0.5000000  0.0000000 )
                  (  0.0000000  0.0000000  1.0000000 )


      isym =  4     120 deg rotation - cryst. axis [0,0,-1]      

 cryst.   s( 4) = (    -1         -1          0      )
                  (     1          0          0      )
                  (     0          0          1      )

 cart.    s( 4) = ( -0.5000000  0.8660254  0.0000000 )
                  ( -0.8660254 -0.5000000  0.0000000 )
                  (  0.0000000  0.0000000  1.0000000 )


      isym =  5     180 deg rotation - cryst. axis [0,1,0]       

 cryst.   s( 5) = (    -1         -1          0      )
                  (     0          1          0      )
                  (     0          0         -1      )

 cart.    s( 5) = ( -0.5000000 -0.8660254  0.0000000 )
                  ( -0.8660254  0.5000000  0.0000000 )
                  (  0.0000000  0.0000000 -1.0000000 )


      isym =  6     180 deg rotation - cryst. axis [1,1,0]       

 cryst.   s( 6) = (     0          1          0      )
                  (     1          0          0      )
                  (     0          0         -1      )

 cart.    s( 6) = ( -0.5000000  0.8660254  0.0000000 )
                  (  0.8660254  0.5000000  0.0000000 )
                  (  0.0000000  0.0000000 -1.0000000 )


      isym =  7     inversion                                    

 cryst.   s( 7) = (    -1          0          0      )
                  (     0         -1          0      )
                  (     0          0         -1      )

 cart.    s( 7) = ( -1.0000000  0.0000000  0.0000000 )
                  (  0.0000000 -1.0000000  0.0000000 )
                  (  0.0000000  0.0000000 -1.0000000 )


      isym =  8     inv. 180 deg rotation - cart. axis [1,0,0]   

 cryst.   s( 8) = (    -1          0          0      )
                  (     1          1          0      )
                  (     0          0          1      )

 cart.    s( 8) = ( -1.0000000  0.0000000  0.0000000 )
                  (  0.0000000  1.0000000  0.0000000 )
                  (  0.0000000  0.0000000  1.0000000 )


      isym =  9     inv. 120 deg rotation - cryst. axis [0,0,1]  

 cryst.   s( 9) = (     0         -1          0      )
                  (     1          1          0      )
                  (     0          0         -1      )

 cart.    s( 9) = (  0.5000000  0.8660254  0.0000000 )
                  ( -0.8660254  0.5000000  0.0000000 )
                  (  0.0000000  0.0000000 -1.0000000 )


      isym = 10     inv. 120 deg rotation - cryst. axis [0,0,-1] 

 cryst.   s(10) = (     1          1          0      )
                  (    -1          0          0      )
                  (     0          0         -1      )

 cart.    s(10) = (  0.5000000 -0.8660254  0.0000000 )
                  (  0.8660254  0.5000000  0.0000000 )
                  (  0.0000000  0.0000000 -1.0000000 )


      isym = 11     inv. 180 deg rotation - cryst. axis [0,1,0]  

 cryst.   s(11) = (     1          1          0      )
                  (     0         -1          0      )
                  (     0          0          1      )

 cart.    s(11) = (  0.5000000  0.8660254  0.0000000 )
                  (  0.8660254 -0.5000000  0.0000000 )
                  (  0.0000000  0.0000000  1.0000000 )


      isym = 12     inv. 180 deg rotation - cryst. axis [1,1,0]  

 cryst.   s(12) = (     0         -1          0      )
                  (    -1          0          0      )
                  (     0          0          1      )

 cart.    s(12) = (  0.5000000 -0.8660254  0.0000000 )
                  ( -0.8660254 -0.5000000  0.0000000 )
                  (  0.0000000  0.0000000  1.0000000 )


     point group D_3d (-3m) 
     there are  6 classes
     the character table:

       E     2C3   3C2'  i     2S6   3s_d 
A_1g   1.00  1.00  1.00  1.00  1.00  1.00
A_2g   1.00  1.00 -1.00  1.00  1.00 -1.00
E_g    2.00 -1.00  0.00  2.00 -1.00  0.00
A_1u   1.00  1.00  1.00 -1.00 -1.00 -1.00
A_2u   1.00  1.00 -1.00 -1.00 -1.00  1.00
E_u    2.00 -1.00  0.00 -2.00  1.00  0.00

     the symmetry operations in each class and the name of the first element:

     E        1
          identity                                               
     2C3      3    4
          120 deg rotation - cryst. axis [0,0,1]                 
     3C2'     2    5    6
          180 deg rotation - cart. axis [1,0,0]                  
     i        7
          inversion                                              
     2S6      9   10
          inv. 120 deg rotation - cryst. axis [0,0,1]            
     3s_d     8   11   12
          inv. 180 deg rotation - cart. axis [1,0,0]             

   Cartesian axes

     site n.     atom                  positions (alat units)
         1           Mo  tau(   1) = (  -0.0000003   0.5773503  -0.9753040  )
         2           Mo  tau(   2) = (   0.5000002   0.2886748   0.9753040  )
         3           S   tau(   3) = (   0.5000002   0.2886748  -0.4800024  )
         4           S   tau(   4) = (  -0.0000003   0.5773503   0.4800024  )
         5           S   tau(   5) = (  -0.0000003   0.5773503   1.4699920  )
         6           S   tau(   6) = (   0.5000002   0.2886748  -1.4699920  )

   Crystallographic axes

     site n.     atom                  positions (cryst. coord.)
         1           Mo  tau(   1) = (  0.3333330  0.6666667 -0.1219130  )
         2           Mo  tau(   2) = (  0.6666667  0.3333330  0.1219130  )
         3           S   tau(   3) = (  0.6666667  0.3333330 -0.0600003  )
         4           S   tau(   4) = (  0.3333330  0.6666667  0.0600003  )
         5           S   tau(   5) = (  0.3333330  0.6666667  0.1837490  )
         6           S   tau(   6) = (  0.6666667  0.3333330 -0.1837490  )

     number of k points=    50
                       cart. coord. in units 2pi/alat
        k(    1) = (   0.0000000   0.0000000   0.0000000), wk =   0.0046296
        k(    2) = (   0.0000000   0.0000000   0.0416667), wk =   0.0092593
        k(    3) = (   0.0000000   0.0962250   0.0000000), wk =   0.0277778
        k(    4) = (   0.0000000   0.0962250   0.0416667), wk =   0.0277778
        k(    5) = (   0.0000000   0.1924501   0.0000000), wk =   0.0277778
        k(    6) = (   0.0000000   0.1924501   0.0416667), wk =   0.0277778
        k(    7) = (   0.0000000   0.2886751   0.0000000), wk =   0.0277778
        k(    8) = (   0.0000000   0.2886751   0.0416667), wk =   0.0277778
        k(    9) = (   0.0000000   0.3849002   0.0000000), wk =   0.0277778
        k(   10) = (   0.0000000   0.3849002   0.0416667), wk =   0.0277778
        k(   11) = (   0.0000000   0.4811252   0.0000000), wk =   0.0277778
        k(   12) = (   0.0000000   0.4811252   0.0416667), wk =   0.0277778
        k(   13) = (   0.0000000  -0.5773503   0.0000000), wk =   0.0138889
        k(   14) = (   0.0000000  -0.5773503   0.0416667), wk =   0.0277778
        k(   15) = (   0.0833333   0.1443376   0.0000000), wk =   0.0277778
        k(   16) = (   0.0833333   0.1443376   0.0416667), wk =   0.0555556
        k(   17) = (   0.0833333   0.2405626   0.0000000), wk =   0.0555556
        k(   18) = (   0.0833333   0.2405626   0.0416667), wk =   0.0555556
        k(   19) = (   0.0833333   0.3367877   0.0000000), wk =   0.0555556
        k(   20) = (   0.0833333   0.3367877   0.0416667), wk =   0.0555556
        k(   21) = (   0.0833333   0.4330127   0.0000000), wk =   0.0555556
        k(   22) = (   0.0833333   0.4330127   0.0416667), wk =   0.0555556
        k(   23) = (   0.0833333   0.5292377   0.0000000), wk =   0.0555556
        k(   24) = (   0.0833333   0.5292377   0.0416667), wk =   0.0555556
        k(   25) = (   0.1666667   0.2886751   0.0000000), wk =   0.0277778
        k(   26) = (   0.1666667   0.2886751   0.0416667), wk =   0.0555556
        k(   27) = (   0.1666667   0.3849002   0.0000000), wk =   0.0555556
        k(   28) = (   0.1666667   0.3849002   0.0416667), wk =   0.0555556
        k(   29) = (   0.1666667   0.4811252   0.0000000), wk =   0.0555556
        k(   30) = (   0.1666667   0.4811252   0.0416667), wk =   0.0555556
        k(   31) = (   0.1666667   0.5773503   0.0000000), wk =   0.0277778
        k(   32) = (   0.1666667   0.5773503   0.0416667), wk =   0.0555556
        k(   33) = (   0.2500000   0.4330127   0.0000000), wk =   0.0277778
        k(   34) = (   0.2500000   0.4330127   0.0416667), wk =   0.0555556
        k(   35) = (   0.2500000   0.5292377   0.0000000), wk =   0.0555556
        k(   36) = (   0.2500000   0.5292377   0.0416667), wk =   0.0555556
        k(   37) = (   0.3333333   0.5773503   0.0000000), wk =   0.0092593
        k(   38) = (   0.3333333   0.5773503   0.0416667), wk =   0.0185185
        k(   39) = (   0.0000000   0.0962250  -0.0416667), wk =   0.0277778
        k(   40) = (   0.0000000   0.1924501  -0.0416667), wk =   0.0277778
        k(   41) = (   0.0000000   0.2886751  -0.0416667), wk =   0.0277778
        k(   42) = (   0.0000000   0.3849002  -0.0416667), wk =   0.0277778
        k(   43) = (   0.0000000   0.4811252  -0.0416667), wk =   0.0277778
        k(   44) = (  -0.0833333   0.2405626  -0.0416667), wk =   0.0555556
        k(   45) = (  -0.0833333   0.3367877  -0.0416667), wk =   0.0555556
        k(   46) = (  -0.0833333   0.4330127  -0.0416667), wk =   0.0555556
        k(   47) = (  -0.0833333   0.5292377  -0.0416667), wk =   0.0555556
        k(   48) = (  -0.1666667   0.3849002  -0.0416667), wk =   0.0555556
        k(   49) = (  -0.1666667   0.4811252  -0.0416667), wk =   0.0555556
        k(   50) = (  -0.2500000   0.5292377  -0.0416667), wk =   0.0555556

                       cryst. coord.
        k(    1) = (   0.0000000   0.0000000   0.0000000), wk =   0.0046296
        k(    2) = (   0.0000000   0.0000000   0.3333333), wk =   0.0092593
        k(    3) = (   0.0000000   0.0833333   0.0000000), wk =   0.0277778
        k(    4) = (   0.0000000   0.0833333   0.3333333), wk =   0.0277778
        k(    5) = (   0.0000000   0.1666667   0.0000000), wk =   0.0277778
        k(    6) = (   0.0000000   0.1666667   0.3333333), wk =   0.0277778
        k(    7) = (   0.0000000   0.2500000   0.0000000), wk =   0.0277778
        k(    8) = (   0.0000000   0.2500000   0.3333333), wk =   0.0277778
        k(    9) = (   0.0000000   0.3333333   0.0000000), wk =   0.0277778
        k(   10) = (   0.0000000   0.3333333   0.3333333), wk =   0.0277778
        k(   11) = (   0.0000000   0.4166667   0.0000000), wk =   0.0277778
        k(   12) = (   0.0000000   0.4166667   0.3333333), wk =   0.0277778
        k(   13) = (   0.0000000  -0.5000000   0.0000000), wk =   0.0138889
        k(   14) = (   0.0000000  -0.5000000   0.3333333), wk =   0.0277778
        k(   15) = (   0.0833333   0.0833333   0.0000000), wk =   0.0277778
        k(   16) = (   0.0833333   0.0833333   0.3333333), wk =   0.0555556
        k(   17) = (   0.0833333   0.1666667   0.0000000), wk =   0.0555556
        k(   18) = (   0.0833333   0.1666667   0.3333333), wk =   0.0555556
        k(   19) = (   0.0833333   0.2500000   0.0000000), wk =   0.0555556
        k(   20) = (   0.0833333   0.2500000   0.3333333), wk =   0.0555556
        k(   21) = (   0.0833333   0.3333333   0.0000000), wk =   0.0555556
        k(   22) = (   0.0833333   0.3333333   0.3333333), wk =   0.0555556
        k(   23) = (   0.0833333   0.4166667   0.0000000), wk =   0.0555556
        k(   24) = (   0.0833333   0.4166667   0.3333333), wk =   0.0555556
        k(   25) = (   0.1666667   0.1666667   0.0000000), wk =   0.0277778
        k(   26) = (   0.1666667   0.1666667   0.3333333), wk =   0.0555556
        k(   27) = (   0.1666667   0.2500000   0.0000000), wk =   0.0555556
        k(   28) = (   0.1666667   0.2500000   0.3333333), wk =   0.0555556
        k(   29) = (   0.1666667   0.3333333   0.0000000), wk =   0.0555556
        k(   30) = (   0.1666667   0.3333333   0.3333333), wk =   0.0555556
        k(   31) = (   0.1666667   0.4166667   0.0000000), wk =   0.0277778
        k(   32) = (   0.1666667   0.4166667   0.3333333), wk =   0.0555556
        k(   33) = (   0.2500000   0.2500000   0.0000000), wk =   0.0277778
        k(   34) = (   0.2500000   0.2500000   0.3333333), wk =   0.0555556
        k(   35) = (   0.2500000   0.3333333   0.0000000), wk =   0.0555556
        k(   36) = (   0.2500000   0.3333333   0.3333333), wk =   0.0555556
        k(   37) = (   0.3333333   0.3333333   0.0000000), wk =   0.0092593
        k(   38) = (   0.3333333   0.3333333   0.3333333), wk =   0.0185185
        k(   39) = (   0.0000000   0.0833333  -0.3333333), wk =   0.0277778
        k(   40) = (   0.0000000   0.1666667  -0.3333333), wk =   0.0277778
        k(   41) = (   0.0000000   0.2500000  -0.3333333), wk =   0.0277778
        k(   42) = (   0.0000000   0.3333333  -0.3333333), wk =   0.0277778
        k(   43) = (   0.0000000   0.4166667  -0.3333333), wk =   0.0277778
        k(   44) = (  -0.0833333   0.2500000  -0.3333333), wk =   0.0555556
        k(   45) = (  -0.0833333   0.3333333  -0.3333333), wk =   0.0555556
        k(   46) = (  -0.0833333   0.4166667  -0.3333333), wk =   0.0555556
        k(   47) = (  -0.0833333   0.5000000  -0.3333333), wk =   0.0555556
        k(   48) = (  -0.1666667   0.4166667  -0.3333333), wk =   0.0555556
        k(   49) = (  -0.1666667   0.5000000  -0.3333333), wk =   0.0555556
        k(   50) = (  -0.2500000   0.5833333  -0.3333333), wk =   0.0555556

     Dense  grid:   298475 G-vectors     FFT dimensions: (  45,  45, 360)

     Dynamical RAM for                 wfc:       1.85 MB

     Dynamical RAM for     wfc (w. buffer):      94.33 MB

     Dynamical RAM for           str. fact:       1.14 MB

     Dynamical RAM for           local pot:       0.00 MB

     Dynamical RAM for          nlocal pot:       7.68 MB

     Dynamical RAM for                qrad:       3.66 MB

     Dynamical RAM for          rho,v,vnew:       3.79 MB

     Dynamical RAM for               rhoin:       1.26 MB

     Dynamical RAM for            rho*nmix:       9.11 MB

     Dynamical RAM for           G-vectors:       2.42 MB

     Dynamical RAM for          h,s,v(r/c):       0.12 MB

     Dynamical RAM for          <psi|beta>:       0.04 MB

     Dynamical RAM for                 psi:       3.70 MB

     Dynamical RAM for                hpsi:       3.70 MB

     Dynamical RAM for      wfcinit/wfcrot:       5.15 MB

     Estimated static dynamical RAM per process >     119.47 MB

     Estimated max dynamical RAM per process >     136.14 MB

     Estimated total dynamical RAM >       1.06 GB

     Initial potential from superposition of free atoms

     starting charge      51.9970, renormalised to      52.0000

     negative rho (up, down):  5.480E-07 0.000E+00


     %%%%%%%%%%%%%%%%%%%%%%%%%%%%%%%%%%%%%%%%%%%%%%%%%%%%%%%%%%%%%%%%%%%%%%%%
     %                                                                      %
     % You are using vdW-DF, which was implemented by the Thonhauser group. %
     % Please cite the following two papers that made this development      %
     % possible and the two reviews that describe the various versions:     %
     %                                                                      %
     %   T. Thonhauser et al., PRL 115, 136402 (2015).                      %
     %   T. Thonhauser et al., PRB 76, 125112 (2007).                       %
     %   K. Berland et al., Rep. Prog. Phys. 78, 066501 (2015).             %
     %   D.C. Langreth et al., J. Phys.: Condens. Matter 21, 084203 (2009). %
     %                                                                      %
     % If you are calculating stress with vdW-DF, please also cite:         %
     %                                                                      %
     %   R. Sabatini et al., J. Phys.: Condens. Matter 24, 424209 (2012).   %
     %                                                                      %
     %%%%%%%%%%%%%%%%%%%%%%%%%%%%%%%%%%%%%%%%%%%%%%%%%%%%%%%%%%%%%%%%%%%%%%%%

     %%%%%%%%%%%%%%%%%%%%%%%%%%%%%%%%%%%%%%%%%%%%%%%%%%%%%%%%%%%%%%%%%%%%%%%%
     %                                                                      %
     %  vdW-DF NEWS:                                                        %
     %                                                                      %
     %  * vdW-DF3 is now available. DOI: 10.1021/acs.jctc.0c00471           %
     %    use with input_dft = 'vdW-DF3-opt1' or 'vdW-DF3-opt2'             %
     %                                                                      %
     %  * Unscreened and range-separated hybrid vdW-DF-cx functionals       %
     %    DOI: 10.1063/1.4986522 and 10.1088/1361-648X/ac2ad2               %
     %    use with input_dft = 'vdW-DF-cx0'    and 'vdW-DF-ahcx'            %
     %  * Unscreened and range-separated hybrid vdW-DF2-b86r functionals    %
     %    DOI: 10.1063/1.4986522 and DOI: 10.1103/PhysRevX.12.041003        %
     %    use with input_dft = 'vdW-DF2-br0' and 'vdW-DF2-ahbr'             %
     %                                                                      %
     %%%%%%%%%%%%%%%%%%%%%%%%%%%%%%%%%%%%%%%%%%%%%%%%%%%%%%%%%%%%%%%%%%%%%%%%


     Carrying out vdW-DF run using the following parameters:
     Nqs    =  20  Npoints =  1024  r_max =  100.000
     q_mesh =  0.00001000  0.04494208  0.09755937  0.15916263
               0.23128650  0.31572767  0.41458969  0.53033537
               0.66584808  0.82450364  1.01025438  1.22772762
               1.48234092  1.78043706  2.12944203  2.53805004
               3.01644009  3.57652955  4.23227104  5.00000000


     -----------------------------------------------
     Non-local corr. energy    =       0.58392427 Ry
     -----------------------------------------------

     Starting wfcs are   36 randomized atomic wfcs

     total cpu time spent up to now is       18.3 secs

     Self-consistent Calculation

     iteration #  1     ecut=   130.00 Ry     beta= 0.70
     Davidson diagonalization with overlap

---- Real-time Memory Report at c_bands before calling an iterative solver
             0 MiB given to the printing process from OS
             0 MiB allocation reported by mallinfo(arena+hblkhd)
             0 MiB available memory on the node where the printing process lives
------------------
     ethr =  1.00E-02,  avg # of iterations =  2.0


     -----------------------------------------------
     Non-local corr. energy    =       0.58604644 Ry
     -----------------------------------------------


     total cpu time spent up to now is       37.7 secs

     total energy              =    -369.17680791 Ry
     estimated scf accuracy    <       0.93496681 Ry

     iteration #  2     ecut=   130.00 Ry     beta= 0.70
     Davidson diagonalization with overlap

---- Real-time Memory Report at c_bands before calling an iterative solver
             0 MiB given to the printing process from OS
             0 MiB allocation reported by mallinfo(arena+hblkhd)
             0 MiB available memory on the node where the printing process lives
------------------
     ethr =  1.80E-03,  avg # of iterations =  7.1


     -----------------------------------------------
     Non-local corr. energy    =       0.58583404 Ry
     -----------------------------------------------


     total cpu time spent up to now is       80.5 secs

     total energy              =    -368.44385969 Ry
     estimated scf accuracy    <      10.15640612 Ry

     iteration #  3     ecut=   130.00 Ry     beta= 0.70
     Davidson diagonalization with overlap

---- Real-time Memory Report at c_bands before calling an iterative solver
             0 MiB given to the printing process from OS
             0 MiB allocation reported by mallinfo(arena+hblkhd)
             0 MiB available memory on the node where the printing process lives
------------------
     ethr =  1.80E-03,  avg # of iterations =  5.6


     -----------------------------------------------
     Non-local corr. energy    =       0.58199694 Ry
     -----------------------------------------------


     total cpu time spent up to now is      108.3 secs

     total energy              =    -369.73247007 Ry
     estimated scf accuracy    <       0.01482599 Ry

     iteration #  4     ecut=   130.00 Ry     beta= 0.70
     Davidson diagonalization with overlap

---- Real-time Memory Report at c_bands before calling an iterative solver
             0 MiB given to the printing process from OS
             0 MiB allocation reported by mallinfo(arena+hblkhd)
             0 MiB available memory on the node where the printing process lives
------------------
     ethr =  2.85E-05,  avg # of iterations =  6.7


     -----------------------------------------------
     Non-local corr. energy    =       0.58167852 Ry
     -----------------------------------------------


     total cpu time spent up to now is      141.0 secs

     total energy              =    -369.75022443 Ry
     estimated scf accuracy    <       0.04521854 Ry

     iteration #  5     ecut=   130.00 Ry     beta= 0.70
     Davidson diagonalization with overlap

---- Real-time Memory Report at c_bands before calling an iterative solver
             0 MiB given to the printing process from OS
             0 MiB allocation reported by mallinfo(arena+hblkhd)
             0 MiB available memory on the node where the printing process lives
------------------
     ethr =  2.85E-05,  avg # of iterations =  4.7


     -----------------------------------------------
     Non-local corr. energy    =       0.58164325 Ry
     -----------------------------------------------


     total cpu time spent up to now is      166.5 secs

     total energy              =    -369.75081440 Ry
     estimated scf accuracy    <       0.04137905 Ry

     iteration #  6     ecut=   130.00 Ry     beta= 0.70
     Davidson diagonalization with overlap

---- Real-time Memory Report at c_bands before calling an iterative solver
             0 MiB given to the printing process from OS
             0 MiB allocation reported by mallinfo(arena+hblkhd)
             0 MiB available memory on the node where the printing process lives
------------------
     ethr =  2.85E-05,  avg # of iterations =  3.6


     -----------------------------------------------
     Non-local corr. energy    =       0.58183814 Ry
     -----------------------------------------------


     total cpu time spent up to now is      188.2 secs

     total energy              =    -369.75382977 Ry
     estimated scf accuracy    <       0.00177856 Ry

     iteration #  7     ecut=   130.00 Ry     beta= 0.70
     Davidson diagonalization with overlap

---- Real-time Memory Report at c_bands before calling an iterative solver
             0 MiB given to the printing process from OS
             0 MiB allocation reported by mallinfo(arena+hblkhd)
             0 MiB available memory on the node where the printing process lives
------------------
     ethr =  3.42E-06,  avg # of iterations =  4.9


     -----------------------------------------------
     Non-local corr. energy    =       0.58181521 Ry
     -----------------------------------------------


     total cpu time spent up to now is      215.0 secs

     total energy              =    -369.75446530 Ry
     estimated scf accuracy    <       0.00125069 Ry

     iteration #  8     ecut=   130.00 Ry     beta= 0.70
     Davidson diagonalization with overlap

---- Real-time Memory Report at c_bands before calling an iterative solver
             0 MiB given to the printing process from OS
             0 MiB allocation reported by mallinfo(arena+hblkhd)
             0 MiB available memory on the node where the printing process lives
------------------
     ethr =  2.41E-06,  avg # of iterations =  2.0


     -----------------------------------------------
     Non-local corr. energy    =       0.58184331 Ry
     -----------------------------------------------


     total cpu time spent up to now is      233.3 secs

     total energy              =    -369.75446118 Ry
     estimated scf accuracy    <       0.00026622 Ry

     iteration #  9     ecut=   130.00 Ry     beta= 0.70
     Davidson diagonalization with overlap

---- Real-time Memory Report at c_bands before calling an iterative solver
             0 MiB given to the printing process from OS
             0 MiB allocation reported by mallinfo(arena+hblkhd)
             0 MiB available memory on the node where the printing process lives
------------------
     ethr =  5.12E-07,  avg # of iterations =  4.9


     -----------------------------------------------
     Non-local corr. energy    =       0.58182971 Ry
     -----------------------------------------------


     total cpu time spent up to now is      259.2 secs

     total energy              =    -369.75455391 Ry
     estimated scf accuracy    <       0.00024620 Ry

     iteration # 10     ecut=   130.00 Ry     beta= 0.70
     Davidson diagonalization with overlap

---- Real-time Memory Report at c_bands before calling an iterative solver
             0 MiB given to the printing process from OS
             0 MiB allocation reported by mallinfo(arena+hblkhd)
             0 MiB available memory on the node where the printing process lives
------------------
     ethr =  4.73E-07,  avg # of iterations =  1.0


     -----------------------------------------------
     Non-local corr. energy    =       0.58183861 Ry
     -----------------------------------------------


     total cpu time spent up to now is      275.6 secs

     total energy              =    -369.75453926 Ry
     estimated scf accuracy    <       0.00014539 Ry

     iteration # 11     ecut=   130.00 Ry     beta= 0.70
     Davidson diagonalization with overlap

---- Real-time Memory Report at c_bands before calling an iterative solver
             0 MiB given to the printing process from OS
             0 MiB allocation reported by mallinfo(arena+hblkhd)
             0 MiB available memory on the node where the printing process lives
------------------
     ethr =  2.80E-07,  avg # of iterations =  2.4


     -----------------------------------------------
     Non-local corr. energy    =       0.58184191 Ry
     -----------------------------------------------


     total cpu time spent up to now is      294.6 secs

     total energy              =    -369.75454528 Ry
     estimated scf accuracy    <       0.00002022 Ry

     iteration # 12     ecut=   130.00 Ry     beta= 0.70
     Davidson diagonalization with overlap

---- Real-time Memory Report at c_bands before calling an iterative solver
             0 MiB given to the printing process from OS
             0 MiB allocation reported by mallinfo(arena+hblkhd)
             0 MiB available memory on the node where the printing process lives
------------------
     ethr =  3.89E-08,  avg # of iterations =  4.8


     -----------------------------------------------
     Non-local corr. energy    =       0.58184268 Ry
     -----------------------------------------------


     total cpu time spent up to now is      318.0 secs

     total energy              =    -369.75454958 Ry
     estimated scf accuracy    <       0.00000039 Ry

     iteration # 13     ecut=   130.00 Ry     beta= 0.70
     Davidson diagonalization with overlap

---- Real-time Memory Report at c_bands before calling an iterative solver
             0 MiB given to the printing process from OS
             0 MiB allocation reported by mallinfo(arena+hblkhd)
             0 MiB available memory on the node where the printing process lives
------------------
     ethr =  7.58E-10,  avg # of iterations =  6.9


     -----------------------------------------------
     Non-local corr. energy    =       0.58184277 Ry
     -----------------------------------------------


     total cpu time spent up to now is      349.0 secs

     total energy              =    -369.75454974 Ry
     estimated scf accuracy    <       0.00000277 Ry

     iteration # 14     ecut=   130.00 Ry     beta= 0.70
     Davidson diagonalization with overlap

---- Real-time Memory Report at c_bands before calling an iterative solver
             0 MiB given to the printing process from OS
             0 MiB allocation reported by mallinfo(arena+hblkhd)
             0 MiB available memory on the node where the printing process lives
------------------
     ethr =  7.58E-10,  avg # of iterations =  4.3


     -----------------------------------------------
     Non-local corr. energy    =       0.58184372 Ry
     -----------------------------------------------


     total cpu time spent up to now is      372.4 secs

     total energy              =    -369.75454971 Ry
     estimated scf accuracy    <       0.00000044 Ry

     iteration # 15     ecut=   130.00 Ry     beta= 0.70
     Davidson diagonalization with overlap

---- Real-time Memory Report at c_bands before calling an iterative solver
             0 MiB given to the printing process from OS
             0 MiB allocation reported by mallinfo(arena+hblkhd)
             0 MiB available memory on the node where the printing process lives
------------------
     ethr =  7.58E-10,  avg # of iterations =  4.5


     -----------------------------------------------
     Non-local corr. energy    =       0.58184384 Ry
     -----------------------------------------------


     total cpu time spent up to now is      401.5 secs

     total energy              =    -369.75454989 Ry
     estimated scf accuracy    <       0.00000047 Ry

     iteration # 16     ecut=   130.00 Ry     beta= 0.70
     Davidson diagonalization with overlap

---- Real-time Memory Report at c_bands before calling an iterative solver
             0 MiB given to the printing process from OS
             0 MiB allocation reported by mallinfo(arena+hblkhd)
             0 MiB available memory on the node where the printing process lives
------------------
     ethr =  7.58E-10,  avg # of iterations =  1.0


     -----------------------------------------------
     Non-local corr. energy    =       0.58184387 Ry
     -----------------------------------------------


     total cpu time spent up to now is      418.9 secs

     total energy              =    -369.75454984 Ry
     estimated scf accuracy    <       0.00000041 Ry

     iteration # 17     ecut=   130.00 Ry     beta= 0.70
     Davidson diagonalization with overlap

---- Real-time Memory Report at c_bands before calling an iterative solver
             0 MiB given to the printing process from OS
             0 MiB allocation reported by mallinfo(arena+hblkhd)
             0 MiB available memory on the node where the printing process lives
------------------
     ethr =  7.58E-10,  avg # of iterations =  2.0


     -----------------------------------------------
     Non-local corr. energy    =       0.58184332 Ry
     -----------------------------------------------


     total cpu time spent up to now is      437.9 secs

     End of self-consistent calculation

          k = 0.0000 0.0000 0.0000 ( 37145 PWs)   bands (ev):

   -58.9887 -58.9887 -33.1525 -33.1525 -32.9263 -32.9263 -32.9263 -32.9263
   -12.3457 -12.2063 -11.0918 -10.8756  -4.0829  -3.5565  -0.7514  -0.7514
    -0.7449  -0.7449  -0.5356   0.3527   0.3528   0.3757   0.3757   0.5231
     1.5771   2.2533

     occupation numbers 
     1.0000   1.0000   1.0000   1.0000   1.0000   1.0000   1.0000   1.0000
     1.0000   1.0000   1.0000   1.0000   1.0000   1.0000   1.0000   1.0000
     1.0000   1.0000   1.0000   1.0000   1.0000   1.0000   1.0000   1.0000
     1.0000   1.0000

          k = 0.0000 0.0000 0.0417 ( 37224 PWs)   bands (ev):

   -58.9887 -58.9887 -33.1525 -33.1525 -32.9263 -32.9263 -32.9263 -32.9263
   -12.3457 -12.2063 -11.0918 -10.8756  -4.0829  -3.5565  -0.7514  -0.7514
    -0.7449  -0.7449  -0.5356   0.3527   0.3528   0.3757   0.3757   0.5231
     1.5771   2.2533

     occupation numbers 
     1.0000   1.0000   1.0000   1.0000   1.0000   1.0000   1.0000   1.0000
     1.0000   1.0000   1.0000   1.0000   1.0000   1.0000   1.0000   1.0000
     1.0000   1.0000   1.0000   1.0000   1.0000   1.0000   1.0000   1.0000
     1.0000   1.0000

          k = 0.0000 0.0962 0.0000 ( 37181 PWs)   bands (ev):

   -58.9861 -58.9861 -33.1473 -33.1473 -32.9529 -32.9529 -32.9324 -32.9324
   -12.2417 -12.1031 -11.0449 -10.8353  -3.9644  -3.4388  -0.9844  -0.9738
    -0.8104  -0.6439  -0.6347  -0.1996   0.1865   0.2119   0.5134   0.8898
     1.5619   2.1191

     occupation numbers 
     1.0000   1.0000   1.0000   1.0000   1.0000   1.0000   1.0000   1.0000
     1.0000   1.0000   1.0000   1.0000   1.0000   1.0000   1.0000   1.0000
     1.0000   1.0000   1.0000   1.0000   1.0000   1.0000   1.0000   1.0000
     1.0000   1.0000

          k = 0.0000 0.0962 0.0417 ( 37192 PWs)   bands (ev):

   -58.9861 -58.9861 -33.1473 -33.1473 -32.9529 -32.9529 -32.9324 -32.9324
   -12.2417 -12.1031 -11.0449 -10.8353  -3.9644  -3.4388  -0.9844  -0.9738
    -0.8104  -0.6439  -0.6347  -0.1996   0.1865   0.2119   0.5134   0.8898
     1.5619   2.1191

     occupation numbers 
     1.0000   1.0000   1.0000   1.0000   1.0000   1.0000   1.0000   1.0000
     1.0000   1.0000   1.0000   1.0000   1.0000   1.0000   1.0000   1.0000
     1.0000   1.0000   1.0000   1.0000   1.0000   1.0000   1.0000   1.0000
     1.0000   1.0000

          k = 0.0000 0.1925 0.0000 ( 37231 PWs)   bands (ev):

   -58.9788 -58.9788 -33.1331 -33.1330 -33.0250 -33.0250 -32.9488 -32.9488
   -11.9453 -11.8098 -10.9113 -10.7213  -3.6611  -3.1499  -1.5326  -1.4947
    -1.3218  -0.8889  -0.3455  -0.3280  -0.2035  -0.1737   0.5544   0.9554
     1.4219   1.6706

     occupation numbers 
     1.0000   1.0000   1.0000   1.0000   1.0000   1.0000   1.0000   1.0000
     1.0000   1.0000   1.0000   1.0000   1.0000   1.0000   1.0000   1.0000
     1.0000   1.0000   1.0000   1.0000   1.0000   1.0000   1.0000   1.0000
     1.0000   1.0000

          k = 0.0000 0.1925 0.0417 ( 37241 PWs)   bands (ev):

   -58.9788 -58.9788 -33.1331 -33.1330 -33.0250 -33.0250 -32.9488 -32.9488
   -11.9453 -11.8098 -10.9113 -10.7213  -3.6611  -3.1499  -1.5326  -1.4947
    -1.3218  -0.8889  -0.3455  -0.3280  -0.2035  -0.1737   0.5544   0.9554
     1.4219   1.6706

     occupation numbers 
     1.0000   1.0000   1.0000   1.0000   1.0000   1.0000   1.0000   1.0000
     1.0000   1.0000   1.0000   1.0000   1.0000   1.0000   1.0000   1.0000
     1.0000   1.0000   1.0000   1.0000   1.0000   1.0000   1.0000   1.0000
     1.0000   1.0000

          k = 0.0000 0.2887 0.0000 ( 37283 PWs)   bands (ev):

   -58.9690 -58.9690 -33.1221 -33.1221 -33.1136 -33.1136 -32.9712 -32.9712
   -11.5043 -11.3772 -10.7136 -10.5552  -3.3926  -2.9943  -2.0947  -1.9234
    -1.8362  -1.5659  -0.6426  -0.6081   0.0727   0.1054   0.3238   0.6676
     1.0525   1.1168

     occupation numbers 
     1.0000   1.0000   1.0000   1.0000   1.0000   1.0000   1.0000   1.0000
     1.0000   1.0000   1.0000   1.0000   1.0000   1.0000   1.0000   1.0000
     1.0000   1.0000   1.0000   1.0000   1.0000   1.0000   1.0000   1.0000
     1.0000   1.0000

          k = 0.0000 0.2887 0.0417 ( 37265 PWs)   bands (ev):

   -58.9690 -58.9690 -33.1221 -33.1221 -33.1136 -33.1136 -32.9712 -32.9712
   -11.5043 -11.3772 -10.7136 -10.5552  -3.3926  -2.9943  -2.0947  -1.9234
    -1.8362  -1.5659  -0.6426  -0.6081   0.0727   0.1054   0.3238   0.6676
     1.0525   1.1168

     occupation numbers 
     1.0000   1.0000   1.0000   1.0000   1.0000   1.0000   1.0000   1.0000
     1.0000   1.0000   1.0000   1.0000   1.0000   1.0000   1.0000   1.0000
     1.0000   1.0000   1.0000   1.0000   1.0000   1.0000   1.0000   1.0000
     1.0000   1.0000

          k = 0.0000 0.3849 0.0000 ( 37341 PWs)   bands (ev):

   -58.9591 -58.9591 -33.2178 -33.2178 -33.0941 -33.0940 -32.9935 -32.9935
   -11.0043 -10.8949 -10.4930 -10.3762  -3.5283  -3.3169  -2.5505  -2.3223
    -2.1284  -1.8508  -1.0104  -0.9728   0.0351   0.3057   0.4825   0.5408
     0.7843   0.9086

     occupation numbers 
     1.0000   1.0000   1.0000   1.0000   1.0000   1.0000   1.0000   1.0000
     1.0000   1.0000   1.0000   1.0000   1.0000   1.0000   1.0000   1.0000
     1.0000   1.0000   1.0000   1.0000   1.0000   1.0000   1.0000   1.0000
     1.0000   1.0000

          k = 0.0000 0.3849 0.0417 ( 37325 PWs)   bands (ev):

   -58.9591 -58.9591 -33.2178 -33.2178 -33.0941 -33.0940 -32.9935 -32.9935
   -11.0043 -10.8949 -10.4930 -10.3762  -3.5283  -3.3169  -2.5505  -2.3223
    -2.1284  -1.8508  -1.0104  -0.9728   0.0351   0.3057   0.4825   0.5408
     0.7843   0.9086

     occupation numbers 
     1.0000   1.0000   1.0000   1.0000   1.0000   1.0000   1.0000   1.0000
     1.0000   1.0000   1.0000   1.0000   1.0000   1.0000   1.0000   1.0000
     1.0000   1.0000   1.0000   1.0000   1.0000   1.0000   1.0000   1.0000
     1.0000   1.0000

          k = 0.0000 0.4811 0.0000 ( 37318 PWs)   bands (ev):

   -58.9519 -58.9519 -33.2869 -33.2869 -33.0797 -33.0797 -33.0098 -33.0098
   -10.5800 -10.4989 -10.3095 -10.2396  -3.8752  -3.7128  -2.9343  -2.7730
    -2.2834  -1.9720  -1.2490  -1.2098  -0.1236   0.0649   0.7587   0.8454
     0.9590   1.0817

     occupation numbers 
     1.0000   1.0000   1.0000   1.0000   1.0000   1.0000   1.0000   1.0000
     1.0000   1.0000   1.0000   1.0000   1.0000   1.0000   1.0000   1.0000
     1.0000   1.0000   1.0000   1.0000   1.0000   1.0000   1.0000   1.0000
     1.0000   1.0000

          k = 0.0000 0.4811 0.0417 ( 37343 PWs)   bands (ev):

   -58.9519 -58.9519 -33.2869 -33.2869 -33.0797 -33.0797 -33.0098 -33.0098
   -10.5800 -10.4989 -10.3095 -10.2396  -3.8752  -3.7128  -2.9343  -2.7730
    -2.2834  -1.9720  -1.2490  -1.2098  -0.1236   0.0649   0.7587   0.8454
     0.9590   1.0817

     occupation numbers 
     1.0000   1.0000   1.0000   1.0000   1.0000   1.0000   1.0000   1.0000
     1.0000   1.0000   1.0000   1.0000   1.0000   1.0000   1.0000   1.0000
     1.0000   1.0000   1.0000   1.0000   1.0000   1.0000   1.0000   1.0000
     1.0000   1.0000

          k = 0.0000-0.5774 0.0000 ( 37328 PWs)   bands (ev):

   -58.9492 -58.9492 -33.3121 -33.3121 -33.0744 -33.0744 -33.0157 -33.0157
   -10.4040 -10.3435 -10.2341 -10.1925  -4.0359  -3.8761  -3.0828  -2.9446
    -2.3657  -2.0574  -1.3312  -1.2915  -0.1581  -0.0241   0.8503   0.9497
     1.1578   1.2106

     occupation numbers 
     1.0000   1.0000   1.0000   1.0000   1.0000   1.0000   1.0000   1.0000
     1.0000   1.0000   1.0000   1.0000   1.0000   1.0000   1.0000   1.0000
     1.0000   1.0000   1.0000   1.0000   1.0000   1.0000   1.0000   1.0000
     1.0000   1.0000

          k = 0.0000-0.5774 0.0417 ( 37386 PWs)   bands (ev):

   -58.9492 -58.9492 -33.3121 -33.3121 -33.0744 -33.0744 -33.0158 -33.0157
   -10.4040 -10.3435 -10.2341 -10.1925  -4.0359  -3.8761  -3.0828  -2.9446
    -2.3657  -2.0574  -1.3312  -1.2915  -0.1581  -0.0241   0.8503   0.9497
     1.1578   1.2106

     occupation numbers 
     1.0000   1.0000   1.0000   1.0000   1.0000   1.0000   1.0000   1.0000
     1.0000   1.0000   1.0000   1.0000   1.0000   1.0000   1.0000   1.0000
     1.0000   1.0000   1.0000   1.0000   1.0000   1.0000   1.0000   1.0000
     1.0000   1.0000

          k = 0.0833 0.1443 0.0000 ( 37199 PWs)   bands (ev):

   -58.9811 -58.9811 -33.1376 -33.1376 -33.0009 -33.0009 -32.9450 -32.9450
   -12.0414 -11.9047 -10.9545 -10.7580  -3.7506  -3.2309  -1.3568  -1.3508
    -1.1530  -0.6491  -0.4471  -0.4365  -0.2026  -0.1642   0.6748   1.0490
     1.4856   1.8270

     occupation numbers 
     1.0000   1.0000   1.0000   1.0000   1.0000   1.0000   1.0000   1.0000
     1.0000   1.0000   1.0000   1.0000   1.0000   1.0000   1.0000   1.0000
     1.0000   1.0000   1.0000   1.0000   1.0000   1.0000   1.0000   1.0000
     1.0000   1.0000

          k = 0.0833 0.1443 0.0417 ( 37225 PWs)   bands (ev):

   -58.9811 -58.9811 -33.1376 -33.1376 -33.0009 -33.0009 -32.9450 -32.9450
   -12.0414 -11.9047 -10.9545 -10.7580  -3.7506  -3.2309  -1.3568  -1.3508
    -1.1530  -0.6491  -0.4471  -0.4365  -0.2026  -0.1642   0.6748   1.0490
     1.4856   1.8270

     occupation numbers 
     1.0000   1.0000   1.0000   1.0000   1.0000   1.0000   1.0000   1.0000
     1.0000   1.0000   1.0000   1.0000   1.0000   1.0000   1.0000   1.0000
     1.0000   1.0000   1.0000   1.0000   1.0000   1.0000   1.0000   1.0000
     1.0000   1.0000

          k = 0.0833 0.2406 0.0000 ( 37275 PWs)   bands (ev):

   -58.9726 -58.9726 -33.1207 -33.1207 -33.0820 -33.0820 -32.9679 -32.9679
   -11.6717 -11.5408 -10.7879 -10.6168  -3.4407  -2.9706  -1.8706  -1.8118
    -1.5898  -1.2416  -0.7665  -0.6937  -0.1363  -0.1172   0.6839   0.9667
     1.2293   1.3069

     occupation numbers 
     1.0000   1.0000   1.0000   1.0000   1.0000   1.0000   1.0000   1.0000
     1.0000   1.0000   1.0000   1.0000   1.0000   1.0000   1.0000   1.0000
     1.0000   1.0000   1.0000   1.0000   1.0000   1.0000   1.0000   1.0000
     1.0000   1.0000

          k = 0.0833 0.2406 0.0417 ( 37267 PWs)   bands (ev):

   -58.9726 -58.9726 -33.1207 -33.1207 -33.0820 -33.0820 -32.9679 -32.9679
   -11.6717 -11.5408 -10.7879 -10.6168  -3.4407  -2.9706  -1.8706  -1.8118
    -1.5898  -1.2416  -0.7665  -0.6937  -0.1363  -0.1172   0.6839   0.9667
     1.2293   1.3069

     occupation numbers 
     1.0000   1.0000   1.0000   1.0000   1.0000   1.0000   1.0000   1.0000
     1.0000   1.0000   1.0000   1.0000   1.0000   1.0000   1.0000   1.0000
     1.0000   1.0000   1.0000   1.0000   1.0000   1.0000   1.0000   1.0000
     1.0000   1.0000

          k = 0.0833 0.3368 0.0000 ( 37286 PWs)   bands (ev):

   -58.9627 -58.9627 -33.1742 -33.1742 -33.1012 -33.1012 -32.9944 -32.9944
   -11.1976 -11.0797 -10.5757 -10.4410  -3.3626  -3.0830  -2.2904  -2.0804
    -1.9940  -1.8108  -1.1602  -1.0325   0.0966   0.1221   0.4299   0.6141
     0.9453   0.9961

     occupation numbers 
     1.0000   1.0000   1.0000   1.0000   1.0000   1.0000   1.0000   1.0000
     1.0000   1.0000   1.0000   1.0000   1.0000   1.0000   1.0000   1.0000
     1.0000   1.0000   1.0000   1.0000   1.0000   1.0000   1.0000   1.0000
     1.0000   1.0000

          k = 0.0833 0.3368 0.0417 ( 37295 PWs)   bands (ev):

   -58.9627 -58.9627 -33.1742 -33.1742 -33.1012 -33.1012 -32.9944 -32.9944
   -11.1976 -11.0797 -10.5757 -10.4410  -3.3626  -3.0830  -2.2904  -2.0804
    -1.9940  -1.8108  -1.1602  -1.0325   0.0966   0.1221   0.4299   0.6141
     0.9453   0.9961

     occupation numbers 
     1.0000   1.0000   1.0000   1.0000   1.0000   1.0000   1.0000   1.0000
     1.0000   1.0000   1.0000   1.0000   1.0000   1.0000   1.0000   1.0000
     1.0000   1.0000   1.0000   1.0000   1.0000   1.0000   1.0000   1.0000
     1.0000   1.0000

          k = 0.0833 0.4330 0.0000 ( 37339 PWs)   bands (ev):

   -58.9542 -58.9542 -33.2530 -33.2530 -33.0843 -33.0842 -33.0173 -33.0173
   -10.7267 -10.6327 -10.3679 -10.2777  -3.6402  -3.4690  -2.7647  -2.6365
    -2.1727  -1.8790  -1.3244  -1.2111   0.0633   0.1948   0.2362   0.3063
     1.0655   1.1110

     occupation numbers 
     1.0000   1.0000   1.0000   1.0000   1.0000   1.0000   1.0000   1.0000
     1.0000   1.0000   1.0000   1.0000   1.0000   1.0000   1.0000   1.0000
     1.0000   1.0000   1.0000   1.0000   1.0000   1.0000   1.0000   1.0000
     1.0000   1.0000

          k = 0.0833 0.4330 0.0417 ( 37336 PWs)   bands (ev):

   -58.9542 -58.9542 -33.2530 -33.2530 -33.0843 -33.0842 -33.0173 -33.0173
   -10.7267 -10.6327 -10.3679 -10.2777  -3.6402  -3.4690  -2.7647  -2.6365
    -2.1727  -1.8790  -1.3244  -1.2111   0.0633   0.1948   0.2362   0.3063
     1.0655   1.1110

     occupation numbers 
     1.0000   1.0000   1.0000   1.0000   1.0000   1.0000   1.0000   1.0000
     1.0000   1.0000   1.0000   1.0000   1.0000   1.0000   1.0000   1.0000
     1.0000   1.0000   1.0000   1.0000   1.0000   1.0000   1.0000   1.0000
     1.0000   1.0000

          k = 0.0833 0.5292 0.0000 ( 37326 PWs)   bands (ev):

   -58.9492 -58.9492 -33.2980 -33.2980 -33.0744 -33.0744 -33.0305 -33.0305
   -10.4136 -10.3493 -10.2312 -10.1836  -3.8954  -3.7388  -3.0798  -2.9911
    -2.3180  -2.0122  -1.3566  -1.2921  -0.1319   0.0458   0.3127   0.4143
     1.2889   1.3615

     occupation numbers 
     1.0000   1.0000   1.0000   1.0000   1.0000   1.0000   1.0000   1.0000
     1.0000   1.0000   1.0000   1.0000   1.0000   1.0000   1.0000   1.0000
     1.0000   1.0000   1.0000   1.0000   1.0000   1.0000   1.0000   1.0000
     1.0000   1.0000

          k = 0.0833 0.5292 0.0417 ( 37323 PWs)   bands (ev):

   -58.9492 -58.9492 -33.2980 -33.2980 -33.0744 -33.0744 -33.0305 -33.0305
   -10.4136 -10.3493 -10.2312 -10.1836  -3.8954  -3.7388  -3.0798  -2.9911
    -2.3180  -2.0122  -1.3566  -1.2921  -0.1319   0.0458   0.3127   0.4143
     1.2889   1.3615

     occupation numbers 
     1.0000   1.0000   1.0000   1.0000   1.0000   1.0000   1.0000   1.0000
     1.0000   1.0000   1.0000   1.0000   1.0000   1.0000   1.0000   1.0000
     1.0000   1.0000   1.0000   1.0000   1.0000   1.0000   1.0000   1.0000
     1.0000   1.0000

          k = 0.1667 0.2887 0.0000 ( 37297 PWs)   bands (ev):

   -58.9641 -58.9641 -33.1519 -33.1519 -33.1038 -33.1038 -33.0011 -33.0011
   -11.2664 -11.1458 -10.6043 -10.4633  -3.2851  -2.9602  -2.1017  -1.9636
    -1.8693  -1.7364  -1.4676  -1.1764  -0.1119  -0.1062   0.7365   0.8366
     1.0215   1.0315

     occupation numbers 
     1.0000   1.0000   1.0000   1.0000   1.0000   1.0000   1.0000   1.0000
     1.0000   1.0000   1.0000   1.0000   1.0000   1.0000   1.0000   1.0000
     1.0000   1.0000   1.0000   1.0000   1.0000   1.0000   1.0000   1.0000
     1.0000   1.0000

          k = 0.1667 0.2887 0.0417 ( 37284 PWs)   bands (ev):

   -58.9641 -58.9641 -33.1519 -33.1519 -33.1038 -33.1038 -33.0011 -33.0011
   -11.2664 -11.1458 -10.6043 -10.4633  -3.2851  -2.9602  -2.1017  -1.9636
    -1.8693  -1.7364  -1.4676  -1.1764  -0.1119  -0.1062   0.7365   0.8366
     1.0215   1.0315

     occupation numbers 
     1.0000   1.0000   1.0000   1.0000   1.0000   1.0000   1.0000   1.0000
     1.0000   1.0000   1.0000   1.0000   1.0000   1.0000   1.0000   1.0000
     1.0000   1.0000   1.0000   1.0000   1.0000   1.0000   1.0000   1.0000
     1.0000   1.0000

          k = 0.1667 0.3849 0.0000 ( 37322 PWs)   bands (ev):

   -58.9555 -58.9555 -33.2175 -33.2175 -33.0869 -33.0869 -33.0379 -33.0379
   -10.8117 -10.7108 -10.3979 -10.2959  -3.3909  -3.2069  -2.5766  -2.5194
    -2.0181  -1.8122  -1.5711  -1.2663  -0.4209  -0.3620   0.4344   0.5165
     1.0757   1.0869

     occupation numbers 
     1.0000   1.0000   1.0000   1.0000   1.0000   1.0000   1.0000   1.0000
     1.0000   1.0000   1.0000   1.0000   1.0000   1.0000   1.0000   1.0000
     1.0000   1.0000   1.0000   1.0000   1.0000   1.0000   1.0000   1.0000
     1.0000   1.0000

          k = 0.1667 0.3849 0.0417 ( 37310 PWs)   bands (ev):

   -58.9555 -58.9555 -33.2175 -33.2175 -33.0869 -33.0869 -33.0379 -33.0379
   -10.8117 -10.7108 -10.3979 -10.2959  -3.3909  -3.2069  -2.5766  -2.5194
    -2.0181  -1.8122  -1.5711  -1.2663  -0.4209  -0.3620   0.4344   0.5165
     1.0757   1.0869

     occupation numbers 
     1.0000   1.0000   1.0000   1.0000   1.0000   1.0000   1.0000   1.0000
     1.0000   1.0000   1.0000   1.0000   1.0000   1.0000   1.0000   1.0000
     1.0000   1.0000   1.0000   1.0000   1.0000   1.0000   1.0000   1.0000
     1.0000   1.0000

          k = 0.1667 0.4811 0.0000 ( 37291 PWs)   bands (ev):

   -58.9492 -58.9492 -33.2639 -33.2639 -33.0745 -33.0745 -33.0659 -33.0659
   -10.4319 -10.3609 -10.2249 -10.1666  -3.5670  -3.4210  -3.0837  -3.0618
    -2.1465  -1.8749  -1.4922  -1.2414  -0.5762  -0.4423   0.0066   0.1967
     1.2962   1.3598

     occupation numbers 
     1.0000   1.0000   1.0000   1.0000   1.0000   1.0000   1.0000   1.0000
     1.0000   1.0000   1.0000   1.0000   1.0000   1.0000   1.0000   1.0000
     1.0000   1.0000   1.0000   1.0000   1.0000   1.0000   1.0000   1.0000
     1.0000   1.0000

          k = 0.1667 0.4811 0.0417 ( 37292 PWs)   bands (ev):

   -58.9492 -58.9492 -33.2639 -33.2639 -33.0745 -33.0745 -33.0659 -33.0659
   -10.4319 -10.3609 -10.2249 -10.1666  -3.5670  -3.4210  -3.0837  -3.0618
    -2.1465  -1.8749  -1.4922  -1.2414  -0.5762  -0.4423   0.0066   0.1967
     1.2962   1.3598

     occupation numbers 
     1.0000   1.0000   1.0000   1.0000   1.0000   1.0000   1.0000   1.0000
     1.0000   1.0000   1.0000   1.0000   1.0000   1.0000   1.0000   1.0000
     1.0000   1.0000   1.0000   1.0000   1.0000   1.0000   1.0000   1.0000
     1.0000   1.0000

          k = 0.1667 0.5774 0.0000 ( 37309 PWs)   bands (ev):

   -58.9469 -58.9469 -33.2806 -33.2806 -33.0764 -33.0764 -33.0699 -33.0699
   -10.2756 -10.2267 -10.1533 -10.1221  -3.6391  -3.4952  -3.2700  -3.2599
    -2.2702  -1.9842  -1.3970  -1.2128  -0.5742  -0.4319  -0.1934   0.0406
     1.4581   1.5482

     occupation numbers 
     1.0000   1.0000   1.0000   1.0000   1.0000   1.0000   1.0000   1.0000
     1.0000   1.0000   1.0000   1.0000   1.0000   1.0000   1.0000   1.0000
     1.0000   1.0000   1.0000   1.0000   1.0000   1.0000   1.0000   1.0000
     1.0000   1.0000

          k = 0.1667 0.5774 0.0417 ( 37359 PWs)   bands (ev):

   -58.9469 -58.9469 -33.2806 -33.2806 -33.0764 -33.0764 -33.0699 -33.0699
   -10.2756 -10.2267 -10.1533 -10.1221  -3.6391  -3.4952  -3.2700  -3.2599
    -2.2702  -1.9842  -1.3970  -1.2128  -0.5742  -0.4319  -0.1934   0.0406
     1.4581   1.5482

     occupation numbers 
     1.0000   1.0000   1.0000   1.0000   1.0000   1.0000   1.0000   1.0000
     1.0000   1.0000   1.0000   1.0000   1.0000   1.0000   1.0000   1.0000
     1.0000   1.0000   1.0000   1.0000   1.0000   1.0000   1.0000   1.0000
     1.0000   1.0000

          k = 0.2500 0.4330 0.0000 ( 37313 PWs)   bands (ev):

   -58.9492 -58.9492 -33.2411 -33.2411 -33.0894 -33.0894 -33.0745 -33.0745
   -10.4408 -10.3667 -10.2216 -10.1584  -3.3716  -3.2327  -3.1181  -3.0576
    -1.8700  -1.7987  -1.5077  -1.2350  -1.1191  -0.9745   0.0872   0.2768
     1.2759   1.3258

     occupation numbers 
     1.0000   1.0000   1.0000   1.0000   1.0000   1.0000   1.0000   1.0000
     1.0000   1.0000   1.0000   1.0000   1.0000   1.0000   1.0000   1.0000
     1.0000   1.0000   1.0000   1.0000   1.0000   1.0000   1.0000   1.0000
     1.0000   1.0000

          k = 0.2500 0.4330 0.0417 ( 37329 PWs)   bands (ev):

   -58.9492 -58.9492 -33.2411 -33.2411 -33.0894 -33.0894 -33.0745 -33.0745
   -10.4408 -10.3667 -10.2216 -10.1584  -3.3716  -3.2327  -3.1181  -3.0576
    -1.8700  -1.7987  -1.5077  -1.2350  -1.1191  -0.9745   0.0872   0.2768
     1.2759   1.3258

     occupation numbers 
     1.0000   1.0000   1.0000   1.0000   1.0000   1.0000   1.0000   1.0000
     1.0000   1.0000   1.0000   1.0000   1.0000   1.0000   1.0000   1.0000
     1.0000   1.0000   1.0000   1.0000   1.0000   1.0000   1.0000   1.0000
     1.0000   1.0000

          k = 0.2500 0.5292 0.0000 ( 37323 PWs)   bands (ev):

   -58.9456 -58.9456 -33.2458 -33.2458 -33.1280 -33.1280 -33.0673 -33.0673
   -10.2008 -10.1597 -10.1042 -10.0790  -3.4805  -3.4034  -3.2173  -3.1223
    -2.0884  -1.9062  -1.5177  -1.3709  -1.2300  -1.0420  -0.2567  -0.0322
     1.5650   1.6474

     occupation numbers 
     1.0000   1.0000   1.0000   1.0000   1.0000   1.0000   1.0000   1.0000
     1.0000   1.0000   1.0000   1.0000   1.0000   1.0000   1.0000   1.0000
     1.0000   1.0000   1.0000   1.0000   1.0000   1.0000   1.0000   1.0000
     1.0000   1.0000

          k = 0.2500 0.5292 0.0417 ( 37342 PWs)   bands (ev):

   -58.9456 -58.9456 -33.2458 -33.2458 -33.1280 -33.1280 -33.0673 -33.0673
   -10.2008 -10.1597 -10.1042 -10.0790  -3.4805  -3.4034  -3.2173  -3.1223
    -2.0884  -1.9062  -1.5177  -1.3709  -1.2300  -1.0420  -0.2567  -0.0322
     1.5650   1.6474

     occupation numbers 
     1.0000   1.0000   1.0000   1.0000   1.0000   1.0000   1.0000   1.0000
     1.0000   1.0000   1.0000   1.0000   1.0000   1.0000   1.0000   1.0000
     1.0000   1.0000   1.0000   1.0000   1.0000   1.0000   1.0000   1.0000
     1.0000   1.0000

          k = 0.3333 0.5774 0.0000 ( 37323 PWs)   bands (ev):

   -58.9443 -58.9443 -33.2164 -33.2164 -33.1736 -33.1736 -33.0647 -33.0647
   -10.0982 -10.0982 -10.0519 -10.0519  -3.6267  -3.5418  -2.7946  -2.7946
    -2.2988  -2.1659  -1.7365  -1.7365  -1.0619  -1.0619  -0.3024  -0.3024
     1.7503   1.8345

     occupation numbers 
     1.0000   1.0000   1.0000   1.0000   1.0000   1.0000   1.0000   1.0000
     1.0000   1.0000   1.0000   1.0000   1.0000   1.0000   1.0000   1.0000
     1.0000   1.0000   1.0000   1.0000   1.0000   1.0000   1.0000   1.0000
     1.0000   1.0000

          k = 0.3333 0.5774 0.0417 ( 37311 PWs)   bands (ev):

   -58.9443 -58.9443 -33.2164 -33.2164 -33.1736 -33.1736 -33.0647 -33.0647
   -10.0982 -10.0982 -10.0519 -10.0519  -3.6267  -3.5418  -2.7946  -2.7946
    -2.2988  -2.1659  -1.7365  -1.7365  -1.0619  -1.0619  -0.3024  -0.3024
     1.7503   1.8345

     occupation numbers 
     1.0000   1.0000   1.0000   1.0000   1.0000   1.0000   1.0000   1.0000
     1.0000   1.0000   1.0000   1.0000   1.0000   1.0000   1.0000   1.0000
     1.0000   1.0000   1.0000   1.0000   1.0000   1.0000   1.0000   1.0000
     1.0000   1.0000

          k = 0.0000 0.0962-0.0417 ( 37192 PWs)   bands (ev):

   -58.9861 -58.9861 -33.1473 -33.1473 -32.9529 -32.9529 -32.9324 -32.9324
   -12.2417 -12.1031 -11.0449 -10.8353  -3.9644  -3.4388  -0.9844  -0.9738
    -0.8104  -0.6439  -0.6347  -0.1996   0.1865   0.2119   0.5134   0.8898
     1.5619   2.1191

     occupation numbers 
     1.0000   1.0000   1.0000   1.0000   1.0000   1.0000   1.0000   1.0000
     1.0000   1.0000   1.0000   1.0000   1.0000   1.0000   1.0000   1.0000
     1.0000   1.0000   1.0000   1.0000   1.0000   1.0000   1.0000   1.0000
     1.0000   1.0000

          k = 0.0000 0.1925-0.0417 ( 37241 PWs)   bands (ev):

   -58.9788 -58.9788 -33.1331 -33.1330 -33.0250 -33.0250 -32.9488 -32.9488
   -11.9453 -11.8098 -10.9113 -10.7213  -3.6611  -3.1499  -1.5326  -1.4947
    -1.3218  -0.8889  -0.3455  -0.3280  -0.2035  -0.1737   0.5544   0.9554
     1.4219   1.6706

     occupation numbers 
     1.0000   1.0000   1.0000   1.0000   1.0000   1.0000   1.0000   1.0000
     1.0000   1.0000   1.0000   1.0000   1.0000   1.0000   1.0000   1.0000
     1.0000   1.0000   1.0000   1.0000   1.0000   1.0000   1.0000   1.0000
     1.0000   1.0000

          k = 0.0000 0.2887-0.0417 ( 37265 PWs)   bands (ev):

   -58.9690 -58.9690 -33.1221 -33.1221 -33.1136 -33.1136 -32.9712 -32.9712
   -11.5043 -11.3772 -10.7136 -10.5552  -3.3926  -2.9943  -2.0947  -1.9234
    -1.8362  -1.5659  -0.6426  -0.6081   0.0727   0.1054   0.3238   0.6676
     1.0525   1.1168

     occupation numbers 
     1.0000   1.0000   1.0000   1.0000   1.0000   1.0000   1.0000   1.0000
     1.0000   1.0000   1.0000   1.0000   1.0000   1.0000   1.0000   1.0000
     1.0000   1.0000   1.0000   1.0000   1.0000   1.0000   1.0000   1.0000
     1.0000   1.0000

          k = 0.0000 0.3849-0.0417 ( 37325 PWs)   bands (ev):

   -58.9591 -58.9591 -33.2178 -33.2178 -33.0941 -33.0940 -32.9935 -32.9935
   -11.0043 -10.8949 -10.4930 -10.3762  -3.5283  -3.3169  -2.5505  -2.3223
    -2.1284  -1.8508  -1.0104  -0.9728   0.0351   0.3057   0.4825   0.5408
     0.7843   0.9086

     occupation numbers 
     1.0000   1.0000   1.0000   1.0000   1.0000   1.0000   1.0000   1.0000
     1.0000   1.0000   1.0000   1.0000   1.0000   1.0000   1.0000   1.0000
     1.0000   1.0000   1.0000   1.0000   1.0000   1.0000   1.0000   1.0000
     1.0000   1.0000

          k = 0.0000 0.4811-0.0417 ( 37343 PWs)   bands (ev):

   -58.9519 -58.9519 -33.2869 -33.2869 -33.0797 -33.0797 -33.0098 -33.0098
   -10.5800 -10.4989 -10.3095 -10.2396  -3.8752  -3.7128  -2.9343  -2.7730
    -2.2834  -1.9720  -1.2490  -1.2098  -0.1236   0.0649   0.7587   0.8454
     0.9590   1.0817

     occupation numbers 
     1.0000   1.0000   1.0000   1.0000   1.0000   1.0000   1.0000   1.0000
     1.0000   1.0000   1.0000   1.0000   1.0000   1.0000   1.0000   1.0000
     1.0000   1.0000   1.0000   1.0000   1.0000   1.0000   1.0000   1.0000
     1.0000   1.0000

          k =-0.0833 0.2406-0.0417 ( 37267 PWs)   bands (ev):

   -58.9726 -58.9726 -33.1207 -33.1207 -33.0820 -33.0820 -32.9679 -32.9679
   -11.6717 -11.5408 -10.7879 -10.6168  -3.4407  -2.9706  -1.8706  -1.8118
    -1.5898  -1.2416  -0.7665  -0.6938  -0.1363  -0.1172   0.6839   0.9667
     1.2293   1.3069

     occupation numbers 
     1.0000   1.0000   1.0000   1.0000   1.0000   1.0000   1.0000   1.0000
     1.0000   1.0000   1.0000   1.0000   1.0000   1.0000   1.0000   1.0000
     1.0000   1.0000   1.0000   1.0000   1.0000   1.0000   1.0000   1.0000
     1.0000   1.0000

          k =-0.0833 0.3368-0.0417 ( 37295 PWs)   bands (ev):

   -58.9627 -58.9627 -33.1742 -33.1742 -33.1012 -33.1012 -32.9944 -32.9944
   -11.1976 -11.0797 -10.5757 -10.4410  -3.3626  -3.0830  -2.2904  -2.0804
    -1.9940  -1.8108  -1.1602  -1.0325   0.0966   0.1221   0.4299   0.6141
     0.9454   0.9961

     occupation numbers 
     1.0000   1.0000   1.0000   1.0000   1.0000   1.0000   1.0000   1.0000
     1.0000   1.0000   1.0000   1.0000   1.0000   1.0000   1.0000   1.0000
     1.0000   1.0000   1.0000   1.0000   1.0000   1.0000   1.0000   1.0000
     1.0000   1.0000

          k =-0.0833 0.4330-0.0417 ( 37336 PWs)   bands (ev):

   -58.9542 -58.9542 -33.2530 -33.2530 -33.0843 -33.0842 -33.0173 -33.0173
   -10.7267 -10.6327 -10.3679 -10.2777  -3.6402  -3.4690  -2.7647  -2.6365
    -2.1727  -1.8790  -1.3244  -1.2111   0.0633   0.1948   0.2362   0.3063
     1.0655   1.1110

     occupation numbers 
     1.0000   1.0000   1.0000   1.0000   1.0000   1.0000   1.0000   1.0000
     1.0000   1.0000   1.0000   1.0000   1.0000   1.0000   1.0000   1.0000
     1.0000   1.0000   1.0000   1.0000   1.0000   1.0000   1.0000   1.0000
     1.0000   1.0000

          k =-0.0833 0.5292-0.0417 ( 37323 PWs)   bands (ev):

   -58.9492 -58.9492 -33.2980 -33.2980 -33.0744 -33.0744 -33.0305 -33.0305
   -10.4136 -10.3493 -10.2312 -10.1836  -3.8954  -3.7388  -3.0798  -2.9911
    -2.3180  -2.0122  -1.3566  -1.2921  -0.1319   0.0458   0.3127   0.4143
     1.2889   1.3615

     occupation numbers 
     1.0000   1.0000   1.0000   1.0000   1.0000   1.0000   1.0000   1.0000
     1.0000   1.0000   1.0000   1.0000   1.0000   1.0000   1.0000   1.0000
     1.0000   1.0000   1.0000   1.0000   1.0000   1.0000   1.0000   1.0000
     1.0000   1.0000

          k =-0.1667 0.3849-0.0417 ( 37310 PWs)   bands (ev):

   -58.9555 -58.9555 -33.2175 -33.2175 -33.0869 -33.0869 -33.0379 -33.0379
   -10.8117 -10.7108 -10.3979 -10.2959  -3.3909  -3.2069  -2.5766  -2.5194
    -2.0181  -1.8122  -1.5711  -1.2663  -0.4209  -0.3620   0.4344   0.5165
     1.0757   1.0869

     occupation numbers 
     1.0000   1.0000   1.0000   1.0000   1.0000   1.0000   1.0000   1.0000
     1.0000   1.0000   1.0000   1.0000   1.0000   1.0000   1.0000   1.0000
     1.0000   1.0000   1.0000   1.0000   1.0000   1.0000   1.0000   1.0000
     1.0000   1.0000

          k =-0.1667 0.4811-0.0417 ( 37292 PWs)   bands (ev):

   -58.9492 -58.9492 -33.2639 -33.2639 -33.0745 -33.0745 -33.0659 -33.0659
   -10.4319 -10.3609 -10.2249 -10.1666  -3.5670  -3.4210  -3.0837  -3.0618
    -2.1465  -1.8749  -1.4922  -1.2414  -0.5762  -0.4423   0.0066   0.1967
     1.2962   1.3598

     occupation numbers 
     1.0000   1.0000   1.0000   1.0000   1.0000   1.0000   1.0000   1.0000
     1.0000   1.0000   1.0000   1.0000   1.0000   1.0000   1.0000   1.0000
     1.0000   1.0000   1.0000   1.0000   1.0000   1.0000   1.0000   1.0000
     1.0000   1.0000

          k =-0.2500 0.5292-0.0417 ( 37342 PWs)   bands (ev):

   -58.9456 -58.9456 -33.2458 -33.2458 -33.1280 -33.1280 -33.0673 -33.0673
   -10.2008 -10.1597 -10.1042 -10.0790  -3.4805  -3.4034  -3.2172  -3.1223
    -2.0884  -1.9062  -1.5177  -1.3709  -1.2300  -1.0420  -0.2567  -0.0322
     1.5650   1.6474

     occupation numbers 
     1.0000   1.0000   1.0000   1.0000   1.0000   1.0000   1.0000   1.0000
     1.0000   1.0000   1.0000   1.0000   1.0000   1.0000   1.0000   1.0000
     1.0000   1.0000   1.0000   1.0000   1.0000   1.0000   1.0000   1.0000
     1.0000   1.0000

     highest occupied level (ev):     2.2533

!    total energy              =    -369.75454979 Ry
     estimated scf accuracy    <       0.00000007 Ry

     The total energy is the sum of the following terms:
     one-electron contribution =   -2784.18387817 Ry
     hartree contribution      =    1398.22793608 Ry
     xc contribution           =     -66.64627090 Ry
     ewald contribution        =    1082.84766320 Ry

     convergence has been achieved in  17 iterations


     -----------------------------------------------
     Non-local corr. energy    =       0.58184332 Ry
     -----------------------------------------------


     Forces acting on atoms (cartesian axes, Ry/au):

     atom    1 type  2   force =    -0.00000000   -0.00000000    0.00008422
     atom    2 type  2   force =     0.00000000   -0.00000000   -0.00008422
     atom    3 type  1   force =     0.00000000    0.00000000    0.00013371
     atom    4 type  1   force =     0.00000000    0.00000000   -0.00013371
     atom    5 type  1   force =    -0.00000000    0.00000000    0.00030347
     atom    6 type  1   force =     0.00000000    0.00000000   -0.00030347
     The non-local contrib.  to forces
     atom    1 type  2   force =     0.00000000   -0.00000000   -0.00241067
     atom    2 type  2   force =     0.00000000    0.00000000    0.00241067
     atom    3 type  1   force =     0.00000000   -0.00000000   -0.24563760
     atom    4 type  1   force =     0.00000000   -0.00000000    0.24563760
     atom    5 type  1   force =     0.00000000    0.00000000   -0.24633020
     atom    6 type  1   force =     0.00000000    0.00000000    0.24633020
     The ionic contribution  to forces
     atom    1 type  2   force =     0.00000913   -0.00000527  -75.39930957
     atom    2 type  2   force =    -0.00000913    0.00000527   75.39930957
     atom    3 type  1   force =    -0.00000464    0.00000268   -1.80110405
     atom    4 type  1   force =     0.00000464   -0.00000268    1.80110405
     atom    5 type  1   force =     0.00000457   -0.00000264   62.78738848
     atom    6 type  1   force =    -0.00000457    0.00000264  -62.78738848
     The local contribution  to forces
     atom    1 type  2   force =     0.00014600   -0.00001204   75.40303641
     atom    2 type  2   force =    -0.00008343    0.00012042  -75.40303641
     atom    3 type  1   force =    -0.00000376    0.00000542    2.04179695
     atom    4 type  1   force =     0.00000657   -0.00000054   -2.04179695
     atom    5 type  1   force =     0.00000662   -0.00000055  -62.54660373
     atom    6 type  1   force =    -0.00000378    0.00000546   62.54660373
     The core correction contribution to forces
     atom    1 type  2   force =    -0.00000316    0.00000026    0.00010632
     atom    2 type  2   force =     0.00000181   -0.00000261   -0.00010632
     atom    3 type  1   force =     0.00000050   -0.00000073    0.00537860
     atom    4 type  1   force =    -0.00000088    0.00000007   -0.00537860
     atom    5 type  1   force =    -0.00000088    0.00000007    0.00550393
     atom    6 type  1   force =     0.00000050   -0.00000073   -0.00550393
     The Hubbard contrib.    to forces
     atom    1 type  2   force =     0.00000000    0.00000000    0.00000000
     atom    2 type  2   force =     0.00000000    0.00000000    0.00000000
     atom    3 type  1   force =     0.00000000    0.00000000    0.00000000
     atom    4 type  1   force =     0.00000000    0.00000000    0.00000000
     atom    5 type  1   force =     0.00000000    0.00000000    0.00000000
     atom    6 type  1   force =     0.00000000    0.00000000    0.00000000
     The SCF correction term to forces
     atom    1 type  2   force =     0.00000000   -0.00000000   -0.00133828
     atom    2 type  2   force =    -0.00000000    0.00000000    0.00133828
     atom    3 type  1   force =     0.00000000   -0.00000000   -0.00030019
     atom    4 type  1   force =    -0.00000000    0.00000000    0.00030019
     atom    5 type  1   force =     0.00000000   -0.00000000    0.00034499
     atom    6 type  1   force =    -0.00000000    0.00000000   -0.00034499

     Total force =     0.000484     Total SCF correction =     0.002000
     SCF correction compared to forces is large: reduce conv_thr to get better values


     Computing stress (Cartesian axis) and pressure



     -----------------------------------------------
     Non-local corr. energy    =       0.58184332 Ry
     -----------------------------------------------

          total   stress  (Ry/bohr**3)                   (kbar)     P=        0.05
  -0.00000077   0.00000000  -0.00000000           -0.11        0.00       -0.00
   0.00000000  -0.00000077  -0.00000000            0.00       -0.11       -0.00
  -0.00000000  -0.00000000   0.00000249           -0.00       -0.00        0.37

     kinetic stress (kbar)   7872.21      0.00      0.00
                                0.00   7872.21      0.00
                                0.00      0.00   7916.95

     local   stress (kbar)-274347.07     -0.00     -0.00
                               -0.00-274347.07      0.00
                               -0.00      0.00 267014.60

     nonloc. stress (kbar)   6230.54      0.00      0.00
                                0.00   6230.54      0.00
                                0.00      0.00   6245.68

     hartree stress (kbar) 134765.90     -0.00      0.00
                               -0.00 134765.90      0.00
                                0.00      0.00-131498.06

     exc-cor stress (kbar)   -141.92      0.00      0.00
                                0.00   -141.92     -0.00
                                0.00     -0.00   -141.83

     corecor stress (kbar)  -1751.04     -0.00      0.00
                               -0.00  -1751.04     -0.00
                                0.00     -0.00  -1753.08

     ewald   stress (kbar) 127353.77      0.01      0.00
                                0.01 127353.78     -0.00
                                0.00     -0.00-147808.30

     hubbard stress (kbar)      0.00      0.00      0.00
                                0.00      0.00      0.00
                                0.00      0.00      0.00

     DFT-D   stress (kbar)      0.00      0.00      0.00
                                0.00      0.00      0.00
                                0.00      0.00      0.00

     XDM     stress (kbar)      0.00      0.00      0.00
                                0.00      0.00      0.00
                                0.00      0.00      0.00

     dft-nl  stress (kbar)     17.49     -0.00      0.00
                               -0.00     17.49     -0.00
                                0.00     -0.00     24.41

     TS-vdW  stress (kbar)      0.00      0.00      0.00
                                0.00      0.00      0.00
                                0.00      0.00      0.00

     MDB     stress (kbar)      0.00      0.00      0.00
                                0.00      0.00      0.00
                                0.00      0.00      0.00

     3D-RISM stress (kbar)      0.00      0.00      0.00
                                0.00      0.00      0.00
                                0.00      0.00      0.00


     BFGS Geometry Optimization
     Energy error            =      0.0E+00 Ry
     Gradient error          =      3.0E-04 Ry/Bohr

     number of scf cycles    =   1
     number of bfgs steps    =   0

     energy             new  =    -369.7545497869 Ry

     new trust radius        =       0.0003034732 bohr
     new conv_thr            =       0.0000001000 Ry


ATOMIC_POSITIONS (crystal)
Mo            0.3333330000        0.6666667000       -0.1219112428
Mo            0.6666667000        0.3333330000        0.1219112428
S             0.6666667000        0.3333330000       -0.0599975105
S             0.3333330000        0.6666667000        0.0599975105
S             0.3333330000        0.6666667000        0.1837553314
S             0.6666667000        0.3333330000       -0.1837553314



     Writing config-only to output data dir ./tmp/MoS2_2L_pbe_nsoc.save/
     NEW-OLD atomic charge density approx. for the potential


     -----------------------------------------------
     Non-local corr. energy    =       0.58184891 Ry
     -----------------------------------------------


     total cpu time spent up to now is      473.4 secs

     Self-consistent Calculation

     iteration #  1     ecut=   130.00 Ry     beta= 0.70
     Davidson diagonalization with overlap

---- Real-time Memory Report at c_bands before calling an iterative solver
             0 MiB given to the printing process from OS
             0 MiB allocation reported by mallinfo(arena+hblkhd)
             0 MiB available memory on the node where the printing process lives
------------------
     ethr =  1.00E-06,  avg # of iterations =  1.6

     Threshold (ethr) on eigenvalues was too large:
     Diagonalizing with lowered threshold

     Davidson diagonalization with overlap

---- Real-time Memory Report at c_bands before calling an iterative solver
             0 MiB given to the printing process from OS
             0 MiB allocation reported by mallinfo(arena+hblkhd)
             0 MiB available memory on the node where the printing process lives
------------------
     ethr =  2.70E-09,  avg # of iterations =  4.6


     -----------------------------------------------
     Non-local corr. energy    =       0.58185038 Ry
     -----------------------------------------------


     total cpu time spent up to now is      517.0 secs

     total energy              =    -369.75454551 Ry
     estimated scf accuracy    <       0.00000579 Ry

     iteration #  2     ecut=   130.00 Ry     beta= 0.70
     Davidson diagonalization with overlap

---- Real-time Memory Report at c_bands before calling an iterative solver
             0 MiB given to the printing process from OS
             0 MiB allocation reported by mallinfo(arena+hblkhd)
             0 MiB available memory on the node where the printing process lives
------------------
     ethr =  1.11E-08,  avg # of iterations =  6.9


     -----------------------------------------------
     Non-local corr. energy    =       0.58184819 Ry
     -----------------------------------------------


     total cpu time spent up to now is      553.6 secs

     total energy              =    -369.75453070 Ry
     estimated scf accuracy    <       0.00023905 Ry

     iteration #  3     ecut=   130.00 Ry     beta= 0.70
     Davidson diagonalization with overlap

---- Real-time Memory Report at c_bands before calling an iterative solver
             0 MiB given to the printing process from OS
             0 MiB allocation reported by mallinfo(arena+hblkhd)
             0 MiB available memory on the node where the printing process lives
------------------
     ethr =  1.11E-08,  avg # of iterations =  6.4


     -----------------------------------------------
     Non-local corr. energy    =       0.58184825 Ry
     -----------------------------------------------


     total cpu time spent up to now is      588.5 secs

     total energy              =    -369.75454991 Ry
     estimated scf accuracy    <       0.00000024 Ry

     iteration #  4     ecut=   130.00 Ry     beta= 0.70
     Davidson diagonalization with overlap

---- Real-time Memory Report at c_bands before calling an iterative solver
             0 MiB given to the printing process from OS
             0 MiB allocation reported by mallinfo(arena+hblkhd)
             0 MiB available memory on the node where the printing process lives
------------------
     ethr =  4.61E-10,  avg # of iterations =  5.6


     -----------------------------------------------
     Non-local corr. energy    =       0.58184887 Ry
     -----------------------------------------------


     total cpu time spent up to now is      617.6 secs

     End of self-consistent calculation

          k = 0.0000 0.0000 0.0000 ( 37145 PWs)   bands (ev):

   -58.9882 -58.9882 -33.1520 -33.1520 -32.9258 -32.9258 -32.9258 -32.9258
   -12.3449 -12.2056 -11.0915 -10.8752  -4.0822  -3.5557  -0.7503  -0.7503
    -0.7438  -0.7438  -0.5354   0.3537   0.3537   0.3766   0.3766   0.5229
     1.5769   2.2538

     occupation numbers 
     1.0000   1.0000   1.0000   1.0000   1.0000   1.0000   1.0000   1.0000
     1.0000   1.0000   1.0000   1.0000   1.0000   1.0000   1.0000   1.0000
     1.0000   1.0000   1.0000   1.0000   1.0000   1.0000   1.0000   1.0000
     1.0000   1.0000

          k = 0.0000 0.0000 0.0417 ( 37224 PWs)   bands (ev):

   -58.9882 -58.9882 -33.1520 -33.1520 -32.9258 -32.9258 -32.9258 -32.9258
   -12.3449 -12.2056 -11.0915 -10.8752  -4.0822  -3.5557  -0.7503  -0.7503
    -0.7438  -0.7438  -0.5354   0.3537   0.3537   0.3766   0.3766   0.5229
     1.5769   2.2538

     occupation numbers 
     1.0000   1.0000   1.0000   1.0000   1.0000   1.0000   1.0000   1.0000
     1.0000   1.0000   1.0000   1.0000   1.0000   1.0000   1.0000   1.0000
     1.0000   1.0000   1.0000   1.0000   1.0000   1.0000   1.0000   1.0000
     1.0000   1.0000

          k = 0.0000 0.0962 0.0000 ( 37181 PWs)   bands (ev):

   -58.9856 -58.9856 -33.1468 -33.1468 -32.9524 -32.9523 -32.9318 -32.9318
   -12.2409 -12.1023 -11.0446 -10.8349  -3.9637  -3.4381  -0.9833  -0.9727
    -0.8100  -0.6428  -0.6336  -0.1990   0.1874   0.2128   0.5142   0.8898
     1.5617   2.1196

     occupation numbers 
     1.0000   1.0000   1.0000   1.0000   1.0000   1.0000   1.0000   1.0000
     1.0000   1.0000   1.0000   1.0000   1.0000   1.0000   1.0000   1.0000
     1.0000   1.0000   1.0000   1.0000   1.0000   1.0000   1.0000   1.0000
     1.0000   1.0000

          k = 0.0000 0.0962 0.0417 ( 37192 PWs)   bands (ev):

   -58.9856 -58.9856 -33.1468 -33.1468 -32.9524 -32.9523 -32.9318 -32.9318
   -12.2409 -12.1023 -11.0446 -10.8349  -3.9637  -3.4381  -0.9833  -0.9727
[...]
     1.0000   1.0000   1.0000   1.0000   1.0000   1.0000   1.0000   1.0000
     1.0000   1.0000

          k = 0.2500 0.5292 0.0417 ( 37342 PWs)   bands (ev):

   -58.9452 -58.9452 -33.2453 -33.2453 -33.1275 -33.1275 -33.0669 -33.0669
   -10.1997 -10.1586 -10.1035 -10.0782  -3.4793  -3.4022  -3.2164  -3.1215
    -2.0876  -1.9053  -1.5171  -1.3704  -1.2295  -1.0415  -0.2569  -0.0322
     1.5658   1.6481

     occupation numbers 
     1.0000   1.0000   1.0000   1.0000   1.0000   1.0000   1.0000   1.0000
     1.0000   1.0000   1.0000   1.0000   1.0000   1.0000   1.0000   1.0000
     1.0000   1.0000   1.0000   1.0000   1.0000   1.0000   1.0000   1.0000
     1.0000   1.0000

          k = 0.3333 0.5774 0.0000 ( 37323 PWs)   bands (ev):

   -58.9439 -58.9439 -33.2159 -33.2159 -33.1731 -33.1731 -33.0643 -33.0643
   -10.0972 -10.0972 -10.0511 -10.0511  -3.6254  -3.5404  -2.7939  -2.7939
    -2.2979  -2.1649  -1.7357  -1.7357  -1.0617  -1.0617  -0.3025  -0.3025
     1.7510   1.8352

     occupation numbers 
     1.0000   1.0000   1.0000   1.0000   1.0000   1.0000   1.0000   1.0000
     1.0000   1.0000   1.0000   1.0000   1.0000   1.0000   1.0000   1.0000
     1.0000   1.0000   1.0000   1.0000   1.0000   1.0000   1.0000   1.0000
     1.0000   1.0000

          k = 0.3333 0.5774 0.0417 ( 37311 PWs)   bands (ev):

   -58.9439 -58.9439 -33.2159 -33.2159 -33.1731 -33.1731 -33.0643 -33.0643
   -10.0972 -10.0972 -10.0511 -10.0511  -3.6254  -3.5404  -2.7939  -2.7939
    -2.2979  -2.1649  -1.7357  -1.7357  -1.0617  -1.0617  -0.3025  -0.3025
     1.7510   1.8352

     occupation numbers 
     1.0000   1.0000   1.0000   1.0000   1.0000   1.0000   1.0000   1.0000
     1.0000   1.0000   1.0000   1.0000   1.0000   1.0000   1.0000   1.0000
     1.0000   1.0000   1.0000   1.0000   1.0000   1.0000   1.0000   1.0000
     1.0000   1.0000

          k = 0.0000 0.0962-0.0417 ( 37192 PWs)   bands (ev):

   -58.9857 -58.9857 -33.1469 -33.1468 -32.9524 -32.9524 -32.9319 -32.9319
   -12.2407 -12.1020 -11.0447 -10.8350  -3.9635  -3.4377  -0.9826  -0.9720
    -0.8103  -0.6421  -0.6329  -0.1987   0.1879   0.2133   0.5143   0.8897
     1.5613   2.1191

     occupation numbers 
     1.0000   1.0000   1.0000   1.0000   1.0000   1.0000   1.0000   1.0000
     1.0000   1.0000   1.0000   1.0000   1.0000   1.0000   1.0000   1.0000
     1.0000   1.0000   1.0000   1.0000   1.0000   1.0000   1.0000   1.0000
     1.0000   1.0000

          k = 0.0000 0.1925-0.0417 ( 37241 PWs)   bands (ev):

   -58.9785 -58.9785 -33.1327 -33.1326 -33.0245 -33.0244 -32.9483 -32.9483
   -11.9443 -11.8087 -10.9110 -10.7209  -3.6602  -3.1487  -1.5311  -1.4931
    -1.3213  -0.8879  -0.3439  -0.3262  -0.2021  -0.1722   0.5548   0.9551
     1.4215   1.6707

     occupation numbers 
     1.0000   1.0000   1.0000   1.0000   1.0000   1.0000   1.0000   1.0000
     1.0000   1.0000   1.0000   1.0000   1.0000   1.0000   1.0000   1.0000
     1.0000   1.0000   1.0000   1.0000   1.0000   1.0000   1.0000   1.0000
     1.0000   1.0000

          k = 0.0000 0.2887-0.0417 ( 37265 PWs)   bands (ev):

   -58.9686 -58.9686 -33.1216 -33.1216 -33.1132 -33.1132 -32.9708 -32.9708
   -11.5033 -11.3761 -10.7133 -10.5547  -3.3914  -2.9928  -2.0937  -1.9224
    -1.8355  -1.5648  -0.6412  -0.6066   0.0744   0.1070   0.3238   0.6673
     1.0526   1.1170

     occupation numbers 
     1.0000   1.0000   1.0000   1.0000   1.0000   1.0000   1.0000   1.0000
     1.0000   1.0000   1.0000   1.0000   1.0000   1.0000   1.0000   1.0000
     1.0000   1.0000   1.0000   1.0000   1.0000   1.0000   1.0000   1.0000
     1.0000   1.0000

          k = 0.0000 0.3849-0.0417 ( 37325 PWs)   bands (ev):

   -58.9588 -58.9588 -33.2172 -33.2172 -33.0937 -33.0936 -32.9931 -32.9931
   -11.0033 -10.8938 -10.4924 -10.3756  -3.5270  -3.3155  -2.5498  -2.3217
    -2.1278  -1.8498  -1.0089  -0.9714   0.0349   0.3054   0.4839   0.5422
     0.7846   0.9090

     occupation numbers 
     1.0000   1.0000   1.0000   1.0000   1.0000   1.0000   1.0000   1.0000
     1.0000   1.0000   1.0000   1.0000   1.0000   1.0000   1.0000   1.0000
     1.0000   1.0000   1.0000   1.0000   1.0000   1.0000   1.0000   1.0000
     1.0000   1.0000

          k = 0.0000 0.4811-0.0417 ( 37343 PWs)   bands (ev):

   -58.9515 -58.9515 -33.2864 -33.2864 -33.0793 -33.0793 -33.0093 -33.0093
   -10.5790 -10.4978 -10.3089 -10.2389  -3.8742  -3.7117  -2.9338  -2.7725
    -2.2827  -1.9710  -1.2476  -1.2083  -0.1238   0.0646   0.7598   0.8466
     0.9593   1.0822

     occupation numbers 
     1.0000   1.0000   1.0000   1.0000   1.0000   1.0000   1.0000   1.0000
     1.0000   1.0000   1.0000   1.0000   1.0000   1.0000   1.0000   1.0000
     1.0000   1.0000   1.0000   1.0000   1.0000   1.0000   1.0000   1.0000
     1.0000   1.0000

          k =-0.0833 0.2406-0.0417 ( 37267 PWs)   bands (ev):

   -58.9722 -58.9722 -33.1203 -33.1203 -33.0815 -33.0815 -32.9674 -32.9674
   -11.6707 -11.5397 -10.7876 -10.6164  -3.4397  -2.9692  -1.8693  -1.8105
    -1.5892  -1.2405  -0.7653  -0.6925  -0.1347  -0.1156   0.6842   0.9664
     1.2292   1.3072

     occupation numbers 
     1.0000   1.0000   1.0000   1.0000   1.0000   1.0000   1.0000   1.0000
     1.0000   1.0000   1.0000   1.0000   1.0000   1.0000   1.0000   1.0000
     1.0000   1.0000   1.0000   1.0000   1.0000   1.0000   1.0000   1.0000
     1.0000   1.0000

          k =-0.0833 0.3368-0.0417 ( 37295 PWs)   bands (ev):

   -58.9624 -58.9624 -33.1737 -33.1737 -33.1008 -33.1008 -32.9939 -32.9939
   -11.1966 -11.0786 -10.5752 -10.4404  -3.3613  -3.0814  -2.2896  -2.0797
    -1.9932  -1.8098  -1.1591  -1.0313   0.0978   0.1233   0.4300   0.6138
     0.9458   0.9966

     occupation numbers 
     1.0000   1.0000   1.0000   1.0000   1.0000   1.0000   1.0000   1.0000
     1.0000   1.0000   1.0000   1.0000   1.0000   1.0000   1.0000   1.0000
     1.0000   1.0000   1.0000   1.0000   1.0000   1.0000   1.0000   1.0000
     1.0000   1.0000

          k =-0.0833 0.4330-0.0417 ( 37336 PWs)   bands (ev):

   -58.9538 -58.9538 -33.2524 -33.2524 -33.0839 -33.0838 -33.0168 -33.0168
   -10.7258 -10.6316 -10.3673 -10.2771  -3.6391  -3.4678  -2.7640  -2.6357
    -2.1720  -1.8781  -1.3233  -1.2099   0.0634   0.1951   0.2366   0.3068
     1.0662   1.1118

     occupation numbers 
     1.0000   1.0000   1.0000   1.0000   1.0000   1.0000   1.0000   1.0000
     1.0000   1.0000   1.0000   1.0000   1.0000   1.0000   1.0000   1.0000
     1.0000   1.0000   1.0000   1.0000   1.0000   1.0000   1.0000   1.0000
     1.0000   1.0000

          k =-0.0833 0.5292-0.0417 ( 37323 PWs)   bands (ev):

   -58.9489 -58.9489 -33.2975 -33.2975 -33.0741 -33.0740 -33.0300 -33.0300
   -10.4125 -10.3482 -10.2305 -10.1828  -3.8945  -3.7378  -3.0791  -2.9904
    -2.3172  -2.0111  -1.3554  -1.2909  -0.1321   0.0456   0.3134   0.4151
     1.2895   1.3622

     occupation numbers 
     1.0000   1.0000   1.0000   1.0000   1.0000   1.0000   1.0000   1.0000
     1.0000   1.0000   1.0000   1.0000   1.0000   1.0000   1.0000   1.0000
     1.0000   1.0000   1.0000   1.0000   1.0000   1.0000   1.0000   1.0000
     1.0000   1.0000

          k =-0.1667 0.3849-0.0417 ( 37310 PWs)   bands (ev):

   -58.9551 -58.9551 -33.2170 -33.2170 -33.0865 -33.0865 -33.0374 -33.0374
   -10.8107 -10.7097 -10.3973 -10.2952  -3.3897  -3.2056  -2.5756  -2.5183
    -2.0174  -1.8115  -1.5706  -1.2654  -0.4200  -0.3611   0.4342   0.5164
     1.0765   1.0877

     occupation numbers 
     1.0000   1.0000   1.0000   1.0000   1.0000   1.0000   1.0000   1.0000
     1.0000   1.0000   1.0000   1.0000   1.0000   1.0000   1.0000   1.0000
     1.0000   1.0000   1.0000   1.0000   1.0000   1.0000   1.0000   1.0000
     1.0000   1.0000

          k =-0.1667 0.4811-0.0417 ( 37292 PWs)   bands (ev):

   -58.9489 -58.9489 -33.2634 -33.2634 -33.0741 -33.0741 -33.0654 -33.0654
   -10.4309 -10.3598 -10.2242 -10.1658  -3.5660  -3.4199  -3.0826  -3.0608
    -2.1457  -1.8740  -1.4916  -1.2406  -0.5754  -0.4415   0.0064   0.1966
     1.2969   1.3606

     occupation numbers 
     1.0000   1.0000   1.0000   1.0000   1.0000   1.0000   1.0000   1.0000
     1.0000   1.0000   1.0000   1.0000   1.0000   1.0000   1.0000   1.0000
     1.0000   1.0000   1.0000   1.0000   1.0000   1.0000   1.0000   1.0000
     1.0000   1.0000

          k =-0.2500 0.5292-0.0417 ( 37342 PWs)   bands (ev):

   -58.9452 -58.9452 -33.2453 -33.2453 -33.1275 -33.1275 -33.0669 -33.0669
   -10.1997 -10.1586 -10.1035 -10.0782  -3.4793  -3.4022  -3.2164  -3.1215
    -2.0876  -1.9053  -1.5171  -1.3704  -1.2295  -1.0415  -0.2569  -0.0322
     1.5658   1.6481

     occupation numbers 
     1.0000   1.0000   1.0000   1.0000   1.0000   1.0000   1.0000   1.0000
     1.0000   1.0000   1.0000   1.0000   1.0000   1.0000   1.0000   1.0000
     1.0000   1.0000   1.0000   1.0000   1.0000   1.0000   1.0000   1.0000
     1.0000   1.0000

     highest occupied level (ev):     2.2532

!    total energy              =    -369.75455015 Ry
     estimated scf accuracy    <          1.4E-09 Ry

     The total energy is the sum of the following terms:
     one-electron contribution =   -2784.02831168 Ry
     hartree contribution      =    1398.14620950 Ry
     xc contribution           =     -66.64547905 Ry
     ewald contribution        =    1082.77303108 Ry

     convergence has been achieved in   6 iterations


     -----------------------------------------------
     Non-local corr. energy    =       0.58185412 Ry
     -----------------------------------------------


     Forces acting on atoms (cartesian axes, Ry/au):

     atom    1 type  2   force =    -0.00000000   -0.00000000   -0.00005707
     atom    2 type  2   force =     0.00000000    0.00000000    0.00005707
     atom    3 type  1   force =     0.00000000   -0.00000000    0.00000320
     atom    4 type  1   force =     0.00000000    0.00000000   -0.00000320
     atom    5 type  1   force =     0.00000000    0.00000000    0.00006679
     atom    6 type  1   force =     0.00000000    0.00000000   -0.00006679
     The non-local contrib.  to forces
     atom    1 type  2   force =     0.00000000    0.00000000   -0.00225256
     atom    2 type  2   force =     0.00000000    0.00000000    0.00225256
     atom    3 type  1   force =     0.00000000   -0.00000000   -0.24569992
     atom    4 type  1   force =     0.00000000   -0.00000000    0.24569992
     atom    5 type  1   force =     0.00000000    0.00000000   -0.24648265
     atom    6 type  1   force =     0.00000000   -0.00000000    0.24648265
     The ionic contribution  to forces
     atom    1 type  2   force =     0.00000912   -0.00000527  -75.39864119
     atom    2 type  2   force =    -0.00000912    0.00000527   75.39864119
     atom    3 type  1   force =    -0.00000463    0.00000268   -1.80205136
     atom    4 type  1   force =     0.00000463   -0.00000268    1.80205136
     atom    5 type  1   force =     0.00000457   -0.00000264   62.78580189
     atom    6 type  1   force =    -0.00000457    0.00000264  -62.78580189
     The local contribution  to forces
     atom    1 type  2   force =     0.00014601   -0.00001204   75.40078128
     atom    2 type  2   force =    -0.00008343    0.00012042  -75.40078128
     atom    3 type  1   force =    -0.00000376    0.00000542    2.04242648
     atom    4 type  1   force =     0.00000657   -0.00000054   -2.04242648
     atom    5 type  1   force =     0.00000663   -0.00000055  -62.54474104
     atom    6 type  1   force =    -0.00000379    0.00000546   62.54474104
     The core correction contribution to forces
     atom    1 type  2   force =    -0.00000316    0.00000026    0.00009865
     atom    2 type  2   force =     0.00000181   -0.00000261   -0.00009865
     atom    3 type  1   force =     0.00000050   -0.00000073    0.00538259
     atom    4 type  1   force =    -0.00000088    0.00000007   -0.00538259
     atom    5 type  1   force =    -0.00000088    0.00000007    0.00551463
     atom    6 type  1   force =     0.00000050   -0.00000073   -0.00551463
     The Hubbard contrib.    to forces
     atom    1 type  2   force =     0.00000000    0.00000000    0.00000000
     atom    2 type  2   force =     0.00000000    0.00000000    0.00000000
     atom    3 type  1   force =     0.00000000    0.00000000    0.00000000
     atom    4 type  1   force =     0.00000000    0.00000000    0.00000000
     atom    5 type  1   force =     0.00000000    0.00000000    0.00000000
     atom    6 type  1   force =     0.00000000    0.00000000    0.00000000
     The SCF correction term to forces
     atom    1 type  2   force =    -0.00000000   -0.00000000   -0.00004326
     atom    2 type  2   force =    -0.00000000   -0.00000000    0.00004326
     atom    3 type  1   force =    -0.00000000   -0.00000000   -0.00005459
     atom    4 type  1   force =    -0.00000000   -0.00000000    0.00005459
     atom    5 type  1   force =    -0.00000000    0.00000000   -0.00002604
     atom    6 type  1   force =     0.00000000    0.00000000    0.00002604

     Total force =     0.000124     Total SCF correction =     0.000105
     SCF correction compared to forces is large: reduce conv_thr to get better values


     Computing stress (Cartesian axis) and pressure



     -----------------------------------------------
     Non-local corr. energy    =       0.58185412 Ry
     -----------------------------------------------

          total   stress  (Ry/bohr**3)                   (kbar)     P=       -0.09
  -0.00000131   0.00000000   0.00000000           -0.19        0.00        0.00
   0.00000000  -0.00000131   0.00000000            0.00       -0.19        0.00
   0.00000000   0.00000000   0.00000089            0.00        0.00        0.13

     kinetic stress (kbar)   7872.14      0.00      0.00
                                0.00   7872.14     -0.00
                                0.00     -0.00   7916.62

     local   stress (kbar)-274330.79     -0.00     -0.00
                               -0.00-274330.80      0.00
                               -0.00      0.00 266997.59

     nonloc. stress (kbar)   6230.50     -0.00      0.00
                               -0.00   6230.50     -0.00
                                0.00     -0.00   6245.64

     hartree stress (kbar) 134757.73     -0.00     -0.00
                               -0.00 134757.73      0.00
                               -0.00      0.00-131489.77

     exc-cor stress (kbar)   -141.90      0.00      0.00
                                0.00   -141.90     -0.00
                                0.00     -0.00   -141.80

     corecor stress (kbar)  -1751.04     -0.00      0.00
                               -0.00  -1751.04     -0.00
                                0.00     -0.00  -1753.08

     ewald   stress (kbar) 127345.67      0.01      0.00
                                0.01 127345.68     -0.00
                                0.00     -0.00-147799.47

     hubbard stress (kbar)      0.00      0.00      0.00
                                0.00      0.00      0.00
                                0.00      0.00      0.00

     DFT-D   stress (kbar)      0.00      0.00      0.00
                                0.00      0.00      0.00
                                0.00      0.00      0.00

     XDM     stress (kbar)      0.00      0.00      0.00
                                0.00      0.00      0.00
                                0.00      0.00      0.00

     dft-nl  stress (kbar)     17.49     -0.00      0.00
                               -0.00     17.49     -0.00
                                0.00     -0.00     24.40

     TS-vdW  stress (kbar)      0.00      0.00      0.00
                                0.00      0.00      0.00
                                0.00      0.00      0.00

     MDB     stress (kbar)      0.00      0.00      0.00
                                0.00      0.00      0.00
                                0.00      0.00      0.00

     3D-RISM stress (kbar)      0.00      0.00      0.00
                                0.00      0.00      0.00
                                0.00      0.00      0.00

     Energy error            =      1.4E-07 Ry
     Gradient error          =      6.7E-05 Ry/Bohr

     bfgs converged in   3 scf cycles and   2 bfgs steps
     (criteria: energy <  1.0E-05 Ry, force <  1.0E-04 Ry/Bohr)

     End of BFGS Geometry Optimization

     Final energy             =    -369.7545501500 Ry

     File ./tmp/MoS2_2L_pbe_nsoc.bfgs deleted, as requested
Begin final coordinates

ATOMIC_POSITIONS (crystal)
Mo            0.3333330000        0.6666667000       -0.1219124176
Mo            0.6666667000        0.3333330000        0.1219124176
S             0.6666667000        0.3333330000       -0.0599934380
S             0.3333330000        0.6666667000        0.0599934380
S             0.3333330000        0.6666667000        0.1837622959
S             0.6666667000        0.3333330000       -0.1837622959
End final coordinates



     Writing all to output data dir ./tmp/MoS2_2L_pbe_nsoc.save/

     init_run     :     19.69s CPU     18.18s WALL (       1 calls)
     electrons    :    902.61s CPU    758.19s WALL (       3 calls)
     update_pot   :      1.90s CPU      2.02s WALL (       2 calls)
     forces       :     17.71s CPU     12.97s WALL (       3 calls)
     stress       :     94.54s CPU    130.32s WALL (       3 calls)

     Called by init_run:
     wfcinit      :     10.17s CPU      8.57s WALL (       1 calls)
     wfcinit:atom :      0.17s CPU      0.19s WALL (      50 calls)
     wfcinit:wfcr :      9.39s CPU      7.76s WALL (      50 calls)
     potinit      :      8.76s CPU      8.83s WALL (       1 calls)
     hinit0       :      0.67s CPU      0.68s WALL (       1 calls)

     Called by electrons:
     c_bands      :    806.16s CPU    658.80s WALL (      29 calls)
     sum_band     :     83.66s CPU     85.17s WALL (      29 calls)
     v_of_rho     :     21.60s CPU     22.91s WALL (      30 calls)
     v_h          :      0.18s CPU      0.18s WALL (      30 calls)
     v_xc         :     24.06s CPU     25.60s WALL (      36 calls)
     mix_rho      :      0.55s CPU      0.77s WALL (      29 calls)
     vdW_kernel   :      8.20s CPU      8.23s WALL (       1 calls)

     Called by c_bands:
     init_us_2    :     15.81s CPU     16.09s WALL (    3250 calls)
     init_us_2:cp :     15.80s CPU     16.08s WALL (    3250 calls)
     cegterg      :    770.23s CPU    622.28s WALL (    1450 calls)

     Called by sum_band:
     sum_band:wei :      0.00s CPU      0.00s WALL (      29 calls)
     sum_band:loo :     83.33s CPU     84.80s WALL (      29 calls)
     sum_band:buf :      2.39s CPU      2.42s WALL (    1450 calls)
     sum_band:ini :      7.34s CPU      7.44s WALL (    1450 calls)

     Called by *egterg:
     cdiaghg      :      7.01s CPU      7.15s WALL (    7365 calls)
     cegterg:over :     55.56s CPU     33.11s WALL (    6115 calls)
     cegterg:upda :     38.97s CPU     19.29s WALL (    6115 calls)
     cegterg:last :     61.81s CPU     33.17s WALL (    3876 calls)
     h_psi        :    597.11s CPU    517.56s WALL (    7615 calls)
     g_psi        :      2.71s CPU      3.03s WALL (    6115 calls)

     Called by h_psi:
     h_psi:calbec :     99.28s CPU     53.26s WALL (    7615 calls)
     vloc_psi     :    401.21s CPU    412.10s WALL (    7615 calls)
     add_vuspsi   :     91.67s CPU     46.98s WALL (    7615 calls)

     General routines
     calbec       :    115.49s CPU     62.85s WALL (    8365 calls)
     fft          :      8.76s CPU      8.94s WALL (    2308 calls)
     ffts         :      0.08s CPU      0.09s WALL (      29 calls)
     fftw         :    348.64s CPU    357.15s WALL (  277126 calls)

     Parallel routines

     PWSCF        :  17m17.17s CPU  15m22.80s WALL


   This run was terminated on:  11:53:21  18Apr2024            

=------------------------------------------------------------------------------=
   JOB DONE.
=------------------------------------------------------------------------------=
