
     Program BANDS v.7.2 starts on 27Mar2024 at  6:23: 3 

     This program is part of the open-source Quantum ESPRESSO suite
     for quantum simulation of materials; please cite
         "P. Giannozzi et al., J. Phys.:Condens. Matter 21 395502 (2009);
         "P. Giannozzi et al., J. Phys.:Condens. Matter 29 465901 (2017);
         "P. Giannozzi et al., J. Chem. Phys. 152 154105 (2020);
          URL http://www.quantum-espresso.org", 
     in publications or presentations arising from this work. More details at
     http://www.quantum-espresso.org/quote

     Parallel version (MPI & OpenMP), running on       1 processor cores
     Number of MPI processes:                 1
     Threads/MPI process:                     1

     MPI processes distributed on     1 nodes
     0 MiB available memory on the printing compute node when the environment starts


     Reading xml data from directory:

     ./tmp/graphene_PBE.save/

     IMPORTANT: XC functional enforced from input :
     Exchange-correlation= PBE
                           (   1   4   3   4   0   0   0)
     Any further DFT definition will be discarded
     Please, verify this is what you really want


     G-vector sticks info
     --------------------
     sticks:   dense  smooth     PW     G-vecs:    dense   smooth      PW
     Sum         361     361    109                33017    33017    5693

     Using Slab Decomposition

     Reading collected, re-writing distributed wavefunctions
     high-symmetry point:  0.0000 0.0000 0.0000   x coordinate   0.0000
     high-symmetry point: -0.3333 0.5774 0.0000   x coordinate   0.6667
     high-symmetry point:  0.0000 0.5774 0.0000   x coordinate   1.0000
     high-symmetry point:  0.0000 0.0000 0.0000   x coordinate   1.5773

     Plottable bands (eV) written to file graphene_PBE.dat.gnu
     Bands written to file graphene_PBE.dat

 **************************************************************************

                    xk=(   0.00000,   0.00000,   0.00000  )

     point group D_6h(6/mmm)
     there are 12 classes
     the character table:

       E     2C6   2C3   C2    3C2'  3C2'' i     2S3   2S6   s_h   3s_d  3s_v 
A_1g   1.00  1.00  1.00  1.00  1.00  1.00  1.00  1.00  1.00  1.00  1.00  1.00
A_2g   1.00  1.00  1.00  1.00 -1.00 -1.00  1.00  1.00  1.00  1.00 -1.00 -1.00
B_1g   1.00 -1.00  1.00 -1.00  1.00 -1.00  1.00 -1.00  1.00 -1.00  1.00 -1.00
B_2g   1.00 -1.00  1.00 -1.00 -1.00  1.00  1.00 -1.00  1.00 -1.00 -1.00  1.00
E_1g   2.00  1.00 -1.00 -2.00  0.00  0.00  2.00  1.00 -1.00 -2.00  0.00  0.00
E_2g   2.00 -1.00 -1.00  2.00  0.00  0.00  2.00 -1.00 -1.00  2.00  0.00  0.00
A_1u   1.00  1.00  1.00  1.00  1.00  1.00 -1.00 -1.00 -1.00 -1.00 -1.00 -1.00
A_2u   1.00  1.00  1.00  1.00 -1.00 -1.00 -1.00 -1.00 -1.00 -1.00  1.00  1.00
B_1u   1.00 -1.00  1.00 -1.00  1.00 -1.00 -1.00  1.00 -1.00  1.00 -1.00  1.00
B_2u   1.00 -1.00  1.00 -1.00 -1.00  1.00 -1.00  1.00 -1.00  1.00  1.00 -1.00
E_1u   2.00  1.00 -1.00 -2.00  0.00  0.00 -2.00 -1.00  1.00  2.00  0.00  0.00
E_2u   2.00 -1.00 -1.00  2.00  0.00  0.00 -2.00  1.00  1.00 -2.00  0.00  0.00

     the symmetry operations in each class and the name of the first element:

     E        1
                                                                 
     2C6      5    6
                                                                 
     2C3      7    8
                                                                 
     C2       2
                                                                 
     3C2'     4   12   11
                                                                 
     3C2''    3    9   10
                                                                 
     i       13
                                                                 
     2S3     17   18
                                                                 
     2S6     19   20
                                                                 
     s_h     14
                                                                 
     3s_d    16   24   23
                                                                 
     3s_v    15   21   22
                                                                 

     Band symmetry, D_6h(6/mmm) point group:

     e(  1 -  1) =    -21.23384  eV     1   --> A_1g           
     e(  2 -  2) =     -9.31253  eV     1   --> A_2u           
     e(  3 -  4) =     -4.73663  eV     2   --> E_2g           
     e(  5 -  5) =      1.56838  eV     1   --> A_1g           
     e(  6 -  6) =      2.47605  eV     1   --> A_2u           
     e(  7 -  7) =      3.00223  eV     1   --> A_1g           
     e(  8 -  8) =      4.92976  eV     1   --> A_2u           

 **************************************************************************

 **************************************************************************

                    xk=(  -0.01587,   0.02749,   0.00000  )

     point group C_2v (mm2) 
     there are  4 classes
     the character table:

       E     C2    s_v   s_v' 
A_1    1.00  1.00  1.00  1.00
A_2    1.00  1.00 -1.00 -1.00
B_1    1.00 -1.00  1.00 -1.00
B_2    1.00 -1.00 -1.00  1.00

     the symmetry operations in each class and the name of the first element:

     E        1
                                                                 
     C2       2
                                                                 
     s_v      4
                                                                 
     s_v'     3
                                                                 

     Band symmetry, C_2v (mm2)  point group:

     e(  1 -  1) =    -21.21595  eV     1   --> A_1  D_1  S_1  
     e(  2 -  2) =     -9.29106  eV     1   --> B_1  D_3  S_3  
     e(  3 -  3) =     -4.81098  eV     1   --> B_2  D_4  S_4  
     e(  4 -  4) =     -4.77628  eV     1   --> A_1  D_1  S_1  
     e(  5 -  5) =      1.59265  eV     1   --> A_1  D_1  S_1  
     e(  6 -  6) =      2.50053  eV     1   --> B_1  D_3  S_3  
     e(  7 -  7) =      3.02691  eV     1   --> A_1  D_1  S_1  
     e(  8 -  8) =      4.95406  eV     1   --> B_1  D_3  S_3  

 **************************************************************************

 **************************************************************************

                    xk=(  -0.03175,   0.05499,   0.00000  )

     Band symmetry, C_2v (mm2)  point group:

     e(  1 -  1) =    -21.16253  eV     1   --> A_1  D_1  S_1  
     e(  2 -  2) =     -9.22707  eV     1   --> B_1  D_3  S_3  
     e(  3 -  3) =     -5.02798  eV     1   --> B_2  D_4  S_4  
     e(  4 -  4) =     -4.89486  eV     1   --> A_1  D_1  S_1  
     e(  5 -  5) =      1.66545  eV     1   --> A_1  D_1  S_1  
     e(  6 -  6) =      2.57390  eV     1   --> B_1  D_3  S_3  
     e(  7 -  7) =      3.10097  eV     1   --> A_1  D_1  S_1  
     e(  8 -  8) =      5.02689  eV     1   --> B_1  D_3  S_3  

 **************************************************************************

 **************************************************************************

                    xk=(  -0.04762,   0.08248,   0.00000  )

     Band symmetry, C_2v (mm2)  point group:

     e(  1 -  1) =    -21.07340  eV     1   --> A_1  D_1  S_1  
     e(  2 -  2) =     -9.12041  eV     1   --> B_1  D_3  S_3  
     e(  3 -  3) =     -5.36457  eV     1   --> B_2  D_4  S_4  
     e(  4 -  4) =     -5.08710  eV     1   --> A_1  D_1  S_1  
     e(  5 -  5) =      1.78682  eV     1   --> A_1  D_1  S_1  
     e(  6 -  6) =      2.69616  eV     1   --> B_1  D_3  S_3  
     e(  7 -  7) =      3.22443  eV     1   --> A_1  D_1  S_1  
     e(  8 -  8) =      5.14823  eV     1   --> B_1  D_3  S_3  

 **************************************************************************

 **************************************************************************

                    xk=(  -0.06349,   0.10997,   0.00000  )

     Band symmetry, C_2v (mm2)  point group:

     e(  1 -  1) =    -20.94870  eV     1   --> A_1  D_1  S_1  
     e(  2 -  2) =     -8.97100  eV     1   --> B_1  D_3  S_3  
     e(  3 -  3) =     -5.79618  eV     1   --> B_2  D_4  S_4  
     e(  4 -  4) =     -5.34769  eV     1   --> A_1  D_1  S_1  
     e(  5 -  5) =      1.95676  eV     1   --> A_1  D_1  S_1  
     e(  6 -  6) =      2.86728  eV     1   --> B_1  D_3  S_3  
     e(  7 -  7) =      3.39729  eV     1   --> A_1  D_1  S_1  
     e(  8 -  8) =      5.31800  eV     1   --> B_1  D_3  S_3  

 **************************************************************************

 **************************************************************************

                    xk=(  -0.07936,   0.13746,   0.00000  )

     Band symmetry, C_2v (mm2)  point group:

     e(  1 -  1) =    -20.78865  eV     1   --> A_1  D_1  S_1  
     e(  2 -  2) =     -8.78001  eV     1   --> B_1  D_3  S_3  
     e(  3 -  3) =     -6.29665  eV     1   --> B_2  D_4  S_4  
     e(  4 -  4) =     -5.66861  eV     1   --> A_1  D_1  S_1  
     e(  5 -  5) =      2.17528  eV     1   --> A_1  D_1  S_1  
     e(  6 -  6) =      3.08704  eV     1   --> B_1  D_3  S_3  
     e(  7 -  7) =      3.61957  eV     1   --> A_1  D_1  S_1  
     e(  8 -  8) =      5.53592  eV     1   --> B_1  D_3  S_3  

 **************************************************************************

 **************************************************************************

                    xk=(  -0.09524,   0.16496,   0.00000  )

     Band symmetry, C_2v (mm2)  point group:

     e(  1 -  1) =    -20.59346  eV     1   --> A_1  D_1  S_1  
     e(  2 -  2) =     -8.54791  eV     1   --> B_1  D_3  S_3  
     e(  3 -  3) =     -6.84423  eV     1   --> B_2  D_4  S_4  
     e(  4 -  4) =     -6.04270  eV     1   --> A_1  D_1  S_1  
     e(  5 -  5) =      2.44234  eV     1   --> A_1  D_1  S_1  
     e(  6 -  6) =      3.35529  eV     1   --> B_1  D_3  S_3  
     e(  7 -  7) =      3.89129  eV     1   --> A_1  D_1  S_1  
     e(  8 -  8) =      5.80171  eV     1   --> B_1  D_3  S_3  

 **************************************************************************

 **************************************************************************

                    xk=(  -0.11111,   0.19245,   0.00000  )

     Band symmetry, C_2v (mm2)  point group:

     e(  1 -  1) =    -20.36337  eV     1   --> A_1  D_1  S_1  
     e(  2 -  2) =     -8.27532  eV     1   --> B_1  D_3  S_3  
     e(  3 -  3) =     -7.41945  eV     1   --> B_2  D_4  S_4  
     e(  4 -  4) =     -6.45945  eV     1   --> A_1  D_1  S_1  
     e(  5 -  5) =      2.75787  eV     1   --> A_1  D_1  S_1  
     e(  6 -  6) =      3.67179  eV     1   --> B_1  D_3  S_3  
     e(  7 -  7) =      4.21242  eV     1   --> A_1  D_1  S_1  
     e(  8 -  8) =      6.11499  eV     1   --> B_1  D_3  S_3  

 **************************************************************************

 **************************************************************************

                    xk=(  -0.12698,   0.21994,   0.00000  )

     Band symmetry, C_2v (mm2)  point group:

     e(  1 -  1) =    -20.09865  eV     1   --> A_1  D_1  S_1  
     e(  2 -  2) =     -8.00938  eV     1   --> B_2  D_4  S_4  
     e(  3 -  3) =     -7.96283  eV     1   --> B_1  D_3  S_3  
     e(  4 -  4) =     -6.91014  eV     1   --> A_1  D_1  S_1  
     e(  5 -  5) =      3.12178  eV     1   --> A_1  D_1  S_1  
     e(  6 -  6) =      4.03623  eV     1   --> B_1  D_3  S_3  
     e(  7 -  7) =      4.58296  eV     1   --> A_1  D_1  S_1  
     e(  8 -  8) =      6.45595  eV     1   -->   ?

 **************************************************************************

 **************************************************************************

                    xk=(  -0.14286,   0.24744,   0.00000  )

     Band symmetry, C_2v (mm2)  point group:

     e(  1 -  1) =    -19.80003  eV     1   --> A_1  D_1  S_1  
     e(  2 -  2) =     -8.60235  eV     1   --> B_2  D_4  S_4  
     e(  3 -  3) =     -7.61243  eV     1   --> B_1  D_3  S_3  
     e(  4 -  4) =     -7.38518  eV     1   --> A_1  D_1  S_1  
     e(  5 -  5) =      3.53385  eV     1   --> A_1  D_1  S_1  
     e(  6 -  6) =      4.44799  eV     1   --> B_1  D_3  S_3  
     e(  7 -  7) =      5.00286  eV     1   --> A_1  D_1  S_1  
     e(  8 -  8) =      5.76651  eV     1   --> A_2  D_2  S_2  

 **************************************************************************

 **************************************************************************

                    xk=(  -0.15873,   0.27493,   0.00000  )

     Band symmetry, C_2v (mm2)  point group:

     e(  1 -  1) =    -19.46770  eV     1   --> A_1  D_1  S_1  
     e(  2 -  2) =     -9.19032  eV     1   --> B_2  D_4  S_4  
     e(  3 -  3) =     -7.87656  eV     1   --> A_1  D_1  S_1  
     e(  4 -  4) =     -7.22531  eV     1   --> B_1  D_3  S_3  
     e(  5 -  5) =      3.99388  eV     1   --> A_1  D_1  S_1  
     e(  6 -  6) =      4.90633  eV     1   --> B_1  D_3  S_3  
     e(  7 -  7) =      5.06253  eV     1   --> A_2  D_2  S_2  
     e(  8 -  8) =      5.47205  eV     1   --> A_1  D_1  S_1  

 **************************************************************************

 **************************************************************************

                    xk=(  -0.17460,   0.30242,   0.00000  )

     Band symmetry, C_2v (mm2)  point group:

     e(  1 -  1) =    -19.10229  eV     1   --> A_1  D_1  S_1  
     e(  2 -  2) =     -9.76767  eV     1   --> B_2  D_4  S_4  
     e(  3 -  3) =     -8.37607  eV     1   --> A_1  D_1  S_1  
     e(  4 -  4) =     -6.80349  eV     1   --> B_1  D_3  S_3  
     e(  5 -  5) =      4.35371  eV     1   --> A_2  D_2  S_2  
     e(  6 -  6) =      4.50156  eV     1   --> A_1  D_1  S_1  
     e(  7 -  7) =      5.40996  eV     1   --> B_1  D_3  S_3  
     e(  8 -  8) =      5.99045  eV     1   --> A_1  D_1  S_1  

 **************************************************************************

 **************************************************************************

                    xk=(  -0.19047,   0.32992,   0.00000  )

     Band symmetry, C_2v (mm2)  point group:

     e(  1 -  1) =    -18.70484  eV     1   --> A_1  D_1  S_1  
     e(  2 -  2) =    -10.32963  eV     1   --> B_2  D_4  S_4  
     e(  3 -  3) =     -8.87743  eV     1   --> A_1  D_1  S_1  
     e(  4 -  4) =     -6.34907  eV     1   --> B_1  D_3  S_3  
     e(  5 -  5) =      3.64794  eV     1   --> A_2  D_2  S_2  
     e(  6 -  6) =      5.05638  eV     1   --> A_1  D_1  S_1  
     e(  7 -  7) =      5.95687  eV     1   --> B_1  D_3  S_3  
     e(  8 -  8) =      6.55793  eV     1   --> A_1  D_1  S_1  

 **************************************************************************

 **************************************************************************

                    xk=(  -0.20635,   0.35741,   0.00000  )

     Band symmetry, C_2v (mm2)  point group:

     e(  1 -  1) =    -18.27663  eV     1   --> A_1  D_1  S_1  
     e(  2 -  2) =    -10.87310  eV     1   --> B_2  D_4  S_4  
     e(  3 -  3) =     -9.37402  eV     1   --> A_1  D_1  S_1  
     e(  4 -  4) =     -5.86567  eV     1   --> B_1  D_3  S_3  
     e(  5 -  5) =      2.95333  eV     1   --> A_2  D_2  S_2  
     e(  6 -  6) =      5.65765  eV     1   --> A_1  D_1  S_1  
     e(  7 -  7) =      6.54323  eV     1   --> B_1  D_3  S_3  
     e(  8 -  8) =      7.17425  eV     1   --> A_1  D_1  S_1  

 **************************************************************************

 **************************************************************************

                    xk=(  -0.22222,   0.38490,   0.00000  )

     Band symmetry, C_2v (mm2)  point group:

     e(  1 -  1) =    -17.81891  eV     1   --> A_1  D_1  S_1  
     e(  2 -  2) =    -11.39446  eV     1   --> B_2  D_4  S_4  
     e(  3 -  3) =     -9.86023  eV     1   --> A_1  D_1  S_1  
     e(  4 -  4) =     -5.35711  eV     1   --> B_1  D_3  S_3  
     e(  5 -  5) =      2.27612  eV     1   --> A_2  D_2  S_2  
     e(  6 -  6) =      6.30439  eV     1   --> A_1  D_1  S_1  
     e(  7 -  7) =      7.16170  eV     1   --> B_1  D_3  S_3  
     e(  8 -  8) =      7.83912  eV     1   --> A_1  D_1  S_1  

 **************************************************************************

 **************************************************************************

                    xk=(  -0.23809,   0.41239,   0.00000  )

     Band symmetry, C_2v (mm2)  point group:

     e(  1 -  1) =    -17.33368  eV     1   --> A_1  D_1  S_1  
     e(  2 -  2) =    -11.89234  eV     1   --> B_2  D_4  S_4  
     e(  3 -  3) =    -10.33029  eV     1   --> A_1  D_1  S_1  
     e(  4 -  4) =     -4.82775  eV     1   --> B_1  D_3  S_3  
     e(  5 -  5) =      1.62030  eV     1   --> A_2  D_2  S_2  
     e(  6 -  6) =      6.99498  eV     1   --> A_1  D_1  S_1  
     e(  7 -  7) =      7.79595  eV     1   --> B_1  D_3  S_3  
     e(  8 -  8) =      8.55198  eV     1   --> A_1  D_1  S_1  

 **************************************************************************

 **************************************************************************

                    xk=(  -0.25397,   0.43989,   0.00000  )

     Band symmetry, C_2v (mm2)  point group:

     e(  1 -  1) =    -16.82418  eV     1   --> A_1  D_1  S_1  
     e(  2 -  2) =    -12.36516  eV     1   --> B_2  D_4  S_4  
     e(  3 -  3) =    -10.77908  eV     1   --> A_1  D_1  S_1  
     e(  4 -  4) =     -4.28404  eV     1   --> B_1  D_3  S_3  
     e(  5 -  5) =      0.99006  eV     1   --> A_2  D_2  S_2  
     e(  6 -  6) =      7.72658  eV     1   --> A_1  D_1  S_1  
     e(  7 -  7) =      8.40453  eV     1   --> B_1  D_3  S_3  
     e(  8 -  8) =      9.31172  eV     1   --> A_1  D_1  S_1  

 **************************************************************************

 **************************************************************************

                    xk=(  -0.26984,   0.46738,   0.00000  )

     Band symmetry, C_2v (mm2)  point group:

     e(  1 -  1) =    -16.29542  eV     1   --> A_1  D_1  S_1  
     e(  2 -  2) =    -12.81092  eV     1   --> B_2  D_4  S_4  
     e(  3 -  3) =    -11.20010  eV     1   --> A_1  D_1  S_1  
     e(  4 -  4) =     -3.73349  eV     1   --> B_1  D_3  S_3  
     e(  5 -  5) =      0.38967  eV     1   --> A_2  D_2  S_2  
     e(  6 -  6) =      8.49410  eV     1   --> A_1  D_1  S_1  
     e(  7 -  7) =      8.88299  eV     1   --> B_1  D_3  S_3  
     e(  8 -  8) =     10.11585  eV     1   --> A_1  D_1  S_1  

 **************************************************************************

 **************************************************************************

                    xk=(  -0.28571,   0.49487,   0.00000  )

     Band symmetry, C_2v (mm2)  point group:

     e(  1 -  1) =    -15.75495  eV     1   --> A_1  D_1  S_1  
     e(  2 -  2) =    -13.22980  eV     1   --> B_2  D_4  S_4  
     e(  3 -  3) =    -11.58437  eV     1   --> A_1  D_1  S_1  
     e(  4 -  4) =     -3.18523  eV     1   --> B_1  D_3  S_3  
     e(  5 -  5) =     -0.17955  eV     1   --> A_2  D_2  S_2  
     e(  6 -  6) =      9.09132  eV     1   --> B_1  D_3  S_3  
     e(  7 -  7) =      9.28724  eV     1   --> A_1  D_1  S_1  
     e(  8 -  8) =     10.95504  eV     1   --> A_1  D_1  S_1  

 **************************************************************************

 **************************************************************************

                    xk=(  -0.30158,   0.52237,   0.00000  )

     Band symmetry, C_2v (mm2)  point group:

     e(  1 -  1) =    -15.21826  eV     1   --> A_1  D_1  S_1  
     e(  2 -  2) =    -13.62064  eV     1   --> B_2  D_4  S_4  
     e(  3 -  3) =    -11.91733  eV     1   --> A_1  D_1  S_1  
     e(  4 -  4) =     -2.65120  eV     1   --> B_1  D_3  S_3  
     e(  5 -  5) =     -0.71505  eV     1   --> A_2  D_2  S_2  
     e(  6 -  6) =      9.07949  eV     1   --> B_1  D_3  S_3  
     e(  7 -  7) =     10.08077  eV     1   --> A_1  D_1  S_1  
     e(  8 -  8) =     11.37027  eV     1   --> B_2  D_4  S_4  

 **************************************************************************

 **************************************************************************

                    xk=(  -0.31746,   0.54986,   0.00000  )

     Band symmetry, C_2v (mm2)  point group:

     e(  1 -  1) =    -14.71645  eV     1   --> A_1  D_1  S_1  
     e(  2 -  2) =    -13.98260  eV     1   --> B_2  D_4  S_4  
     e(  3 -  3) =    -12.16808  eV     1   --> A_1  D_1  S_1  
     e(  4 -  4) =     -2.14383  eV     1   --> B_1  D_3  S_3  
     e(  5 -  5) =     -1.21496  eV     1   --> A_2  D_2  S_2  
     e(  6 -  6) =      9.00997  eV     1   --> B_1  D_3  S_3  
     e(  7 -  7) =     10.80224  eV     1   --> A_1  D_1  S_1  
     e(  8 -  8) =     11.34602  eV     1   --> B_2  D_4  S_4  

 **************************************************************************

 **************************************************************************

                    xk=(  -0.33333,   0.57735,   0.00000  )

     zone border point and non-symmorphic group 
     symmetry decomposition not available

 **************************************************************************

 **************************************************************************

                    xk=(  -0.30303,   0.57735,   0.00000  )

     zone border point and non-symmorphic group 
     symmetry decomposition not available

 **************************************************************************

 **************************************************************************

                    xk=(  -0.27272,   0.57735,   0.00000  )

     zone border point and non-symmorphic group 
     symmetry decomposition not available

 **************************************************************************

 **************************************************************************

                    xk=(  -0.24242,   0.57735,   0.00000  )

     zone border point and non-symmorphic group 
     symmetry decomposition not available

 **************************************************************************

 **************************************************************************

                    xk=(  -0.21212,   0.57735,   0.00000  )

     zone border point and non-symmorphic group 
     symmetry decomposition not available

 **************************************************************************

 **************************************************************************

                    xk=(  -0.18182,   0.57735,   0.00000  )

     zone border point and non-symmorphic group 
     symmetry decomposition not available

 **************************************************************************

 **************************************************************************

                    xk=(  -0.15151,   0.57735,   0.00000  )

     zone border point and non-symmorphic group 
     symmetry decomposition not available

 **************************************************************************

 **************************************************************************

                    xk=(  -0.12121,   0.57735,   0.00000  )

     zone border point and non-symmorphic group 
     symmetry decomposition not available

 **************************************************************************

 **************************************************************************

                    xk=(  -0.09091,   0.57735,   0.00000  )

     zone border point and non-symmorphic group 
     symmetry decomposition not available

 **************************************************************************

 **************************************************************************

                    xk=(  -0.06061,   0.57735,   0.00000  )

     zone border point and non-symmorphic group 
     symmetry decomposition not available

 **************************************************************************

 **************************************************************************

                    xk=(  -0.03030,   0.57735,   0.00000  )

     zone border point and non-symmorphic group 
     symmetry decomposition not available

 **************************************************************************

 **************************************************************************

                    xk=(   0.00000,   0.57735,   0.00000  )

     zone border point and non-symmorphic group 
     symmetry decomposition not available

 **************************************************************************

 **************************************************************************

                    xk=(   0.00000,   0.54528,   0.00000  )

     point group C_2v (mm2) 
     there are  4 classes
     the character table:

       E     C2    s_v   s_v' 
A_1    1.00  1.00  1.00  1.00
A_2    1.00  1.00 -1.00 -1.00
B_1    1.00 -1.00  1.00 -1.00
B_2    1.00 -1.00 -1.00  1.00

     the symmetry operations in each class and the name of the first element:

     E        1
                                                                 
     C2       2
                                                                 
     s_v      3
                                                                 
     s_v'     4
                                                                 

     Band symmetry, C_2v (mm2)  point group:

     e(  1 -  1) =    -16.26454  eV     1   --> A_1  D_1  S_1  
     e(  2 -  2) =    -14.65851  eV     1   --> A_1  D_1  S_1  
     e(  3 -  3) =     -8.11916  eV     1   --> B_1  D_3  S_3  
     e(  4 -  4) =     -4.16139  eV     1   --> B_2  D_4  S_4  
     e(  5 -  5) =      0.15887  eV     1   --> B_2  D_4  S_4  
     e(  6 -  6) =      5.76665  eV     1   --> A_1  D_1  S_1  
     e(  7 -  7) =      8.66906  eV     1   --> A_1  D_1  S_1  
     e(  8 -  8) =      9.59999  eV     1   --> B_2  D_4  S_4  

 **************************************************************************

 **************************************************************************

                    xk=(   0.00000,   0.51320,   0.00000  )

     Band symmetry, C_2v (mm2)  point group:

     e(  1 -  1) =    -16.74993  eV     1   --> A_1  D_1  S_1  
     e(  2 -  2) =    -14.09172  eV     1   --> A_1  D_1  S_1  
     e(  3 -  3) =     -8.06468  eV     1   --> B_1  D_3  S_3  
     e(  4 -  4) =     -4.46936  eV     1   --> B_2  D_4  S_4  
     e(  5 -  5) =      0.55089  eV     1   --> B_2  D_4  S_4  
     e(  6 -  6) =      5.79406  eV     1   --> A_1  D_1  S_1  
     e(  7 -  7) =      7.87608  eV     1   --> A_1  D_1  S_1  
     e(  8 -  8) =      8.81183  eV     1   --> B_2  D_4  S_4  

 **************************************************************************

 **************************************************************************

                    xk=(   0.00000,   0.48113,   0.00000  )

     Band symmetry, C_2v (mm2)  point group:

     e(  1 -  1) =    -17.25645  eV     1   --> A_1  D_1  S_1  
     e(  2 -  2) =    -13.44989  eV     1   --> A_1  D_1  S_1  
     e(  3 -  3) =     -7.97393  eV     1   --> B_1  D_3  S_3  
     e(  4 -  4) =     -4.88832  eV     1   --> B_2  D_4  S_4  
     e(  5 -  5) =      1.10942  eV     1   --> B_2  D_4  S_4  
     e(  6 -  6) =      5.83769  eV     1   --> A_1  D_1  S_1  
     e(  7 -  7) =      7.12720  eV     1   --> A_1  D_1  S_1  
     e(  8 -  8) =      8.06109  eV     1   --> B_2  D_4  S_4  

 **************************************************************************

 **************************************************************************

                    xk=(   0.00000,   0.44905,   0.00000  )

     Band symmetry, C_2v (mm2)  point group:

     e(  1 -  1) =    -17.74826  eV     1   --> A_1  D_1  S_1  
     e(  2 -  2) =    -12.77123  eV     1   --> A_1  D_1  S_1  
     e(  3 -  3) =     -7.84818  eV     1   --> B_1  D_3  S_3  
     e(  4 -  4) =     -5.35712  eV     1   --> B_2  D_4  S_4  
     e(  5 -  5) =      1.76957  eV     1   --> B_2  D_4  S_4  
     e(  6 -  6) =      5.88654  eV     1   --> A_1  D_1  S_1  
     e(  7 -  7) =      6.43412  eV     1   --> A_1  D_1  S_1  
     e(  8 -  8) =      7.35338  eV     1   --> B_2  D_4  S_4  

 **************************************************************************

 **************************************************************************

                    xk=(   0.00000,   0.41698,   0.00000  )

     Band symmetry, C_2v (mm2)  point group:

     e(  1 -  1) =    -18.21487  eV     1   --> A_1  D_1  S_1  
     e(  2 -  2) =    -12.06819  eV     1   --> A_1  D_1  S_1  
     e(  3 -  3) =     -7.68888  eV     1   --> B_1  D_3  S_3  
     e(  4 -  4) =     -5.83847  eV     1   --> B_2  D_4  S_4  
     e(  5 -  5) =      2.48987  eV     1   --> B_2  D_4  S_4  
     e(  6 -  6) =      5.70095  eV     1   --> A_1  D_1  S_1  
     e(  7 -  7) =      6.03657  eV     1   --> A_1  D_1  S_1  
     e(  8 -  8) =      6.69158  eV     1   --> B_2  D_4  S_4  

 **************************************************************************

 **************************************************************************

                    xk=(   0.00000,   0.38490,   0.00000  )

     Band symmetry, C_2v (mm2)  point group:

     e(  1 -  1) =    -18.65177  eV     1   --> A_1  D_1  S_1  
     e(  2 -  2) =    -11.34695  eV     1   --> A_1  D_1  S_1  
     e(  3 -  3) =     -7.49713  eV     1   --> B_1  D_3  S_3  
     e(  4 -  4) =     -6.31077  eV     1   --> B_2  D_4  S_4  
     e(  5 -  5) =      3.24414  eV     1   --> B_2  D_4  S_4  
     e(  6 -  6) =      5.11851  eV     1   --> A_1  D_1  S_1  
     e(  7 -  7) =      6.07830  eV     1   --> B_2  D_4  S_4  
     e(  8 -  8) =      6.09324  eV     1   --> A_1  D_1  S_1  

 **************************************************************************

 **************************************************************************

                    xk=(   0.00000,   0.35283,   0.00000  )

     Band symmetry, C_2v (mm2)  point group:

     e(  1 -  1) =    -19.05769  eV     1   --> A_1  D_1  S_1  
     e(  2 -  2) =    -10.61449  eV     1   --> A_1  D_1  S_1  
     e(  3 -  3) =     -7.27730  eV     1   --> B_1  D_3  S_3  
     e(  4 -  4) =     -6.76354  eV     1   --> B_2  D_4  S_4  
     e(  5 -  5) =      4.00602  eV     1   --> B_2  D_4  S_4  
     e(  6 -  6) =      4.55739  eV     1   --> A_1  D_1  S_1  
     e(  7 -  7) =      5.51895  eV     1   --> B_2  D_4  S_4  
     e(  8 -  8) =      6.02341  eV     1   --> A_1  D_1  S_1  

 **************************************************************************

 **************************************************************************

                    xk=(   0.00000,   0.32075,   0.00000  )

     Band symmetry, C_2v (mm2)  point group:

     e(  1 -  1) =    -19.43073  eV     1   --> A_1  D_1  S_1  
     e(  2 -  2) =     -9.87633  eV     1   --> A_1  D_1  S_1  
     e(  3 -  3) =     -7.18830  eV     1   --> B_2  D_4  S_4  
     e(  4 -  4) =     -7.03022  eV     1   --> B_1  D_3  S_3  
     e(  5 -  5) =      4.04132  eV     1   --> A_1  D_1  S_1  
     e(  6 -  6) =      4.68914  eV     1   --> B_2  D_4  S_4  
     e(  7 -  7) =      5.08921  eV     1   --> B_2  D_4  S_4  
     e(  8 -  8) =      5.51846  eV     1   --> A_1  D_1  S_1  

 **************************************************************************

 **************************************************************************

                    xk=(   0.00000,   0.28868,   0.00000  )

     Band symmetry, C_2v (mm2)  point group:

     e(  1 -  1) =    -19.76986  eV     1   --> A_1  D_1  S_1  
     e(  2 -  2) =     -9.13958  eV     1   --> A_1  D_1  S_1  
     e(  3 -  3) =     -7.58042  eV     1   --> B_2  D_4  S_4  
     e(  4 -  4) =     -6.76004  eV     1   --> B_1  D_3  S_3  
     e(  5 -  5) =      3.57294  eV     1   --> A_1  D_1  S_1  
     e(  6 -  6) =      4.47341  eV     1   --> B_2  D_4  S_4  
     e(  7 -  7) =      5.04245  eV     1   --> A_1  D_1  S_1  
     e(  8 -  8) =      5.59337  eV     1   --> B_2  D_4  S_4  

 **************************************************************************

 **************************************************************************

                    xk=(   0.00000,   0.25660,   0.00000  )

     Band symmetry, C_2v (mm2)  point group:

     e(  1 -  1) =    -20.07501  eV     1   --> A_1  D_1  S_1  
     e(  2 -  2) =     -8.41357  eV     1   --> A_1  D_1  S_1  
     e(  3 -  3) =     -7.93641  eV     1   --> B_2  D_4  S_4  
     e(  4 -  4) =     -6.47313  eV     1   --> B_1  D_3  S_3  
     e(  5 -  5) =      3.15302  eV     1   --> A_1  D_1  S_1  
     e(  6 -  6) =      4.06514  eV     1   --> B_2  D_4  S_4  
     e(  7 -  7) =      4.61488  eV     1   --> A_1  D_1  S_1  
     e(  8 -  8) =      6.27376  eV     1   --> B_2  D_4  S_4  

 **************************************************************************

 **************************************************************************

                    xk=(   0.00000,   0.22453,   0.00000  )

     Band symmetry, C_2v (mm2)  point group:

     e(  1 -  1) =    -20.34525  eV     1   --> A_1  D_1  S_1  
     e(  2 -  2) =     -8.25399  eV     1   --> B_2  D_4  S_4  
     e(  3 -  3) =     -7.70774  eV     1   --> A_1  D_1  S_1  
     e(  4 -  4) =     -6.17528  eV     1   --> B_1  D_3  S_3  
     e(  5 -  5) =      2.78203  eV     1   --> A_1  D_1  S_1  
     e(  6 -  6) =      3.69570  eV     1   --> B_2  D_4  S_4  
     e(  7 -  7) =      4.23714  eV     1   --> A_1  D_1  S_1  
     e(  8 -  8) =      6.13260  eV     1   --> B_2  D_4  S_4  

 **************************************************************************

 **************************************************************************

                    xk=(   0.00000,   0.19245,   0.00000  )

     Band symmetry, C_2v (mm2)  point group:

     e(  1 -  1) =    -20.58016  eV     1   --> A_1  D_1  S_1  
     e(  2 -  2) =     -8.53210  eV     1   --> B_2  D_4  S_4  
     e(  3 -  3) =     -7.03544  eV     1   --> A_1  D_1  S_1  
     e(  4 -  4) =     -5.87543  eV     1   --> B_1  D_3  S_3  
     e(  5 -  5) =      2.46024  eV     1   --> A_1  D_1  S_1  
     e(  6 -  6) =      3.37330  eV     1   --> B_2  D_4  S_4  
     e(  7 -  7) =      3.90958  eV     1   --> A_1  D_1  S_1  
     e(  8 -  8) =      5.81858  eV     1   --> B_2  D_4  S_4  

 **************************************************************************

 **************************************************************************

                    xk=(   0.00000,   0.16038,   0.00000  )

     Band symmetry, C_2v (mm2)  point group:

     e(  1 -  1) =    -20.77939  eV     1   --> A_1  D_1  S_1  
     e(  2 -  2) =     -8.76887  eV     1   --> B_2  D_4  S_4  
     e(  3 -  3) =     -6.41281  eV     1   --> A_1  D_1  S_1  
     e(  4 -  4) =     -5.58364  eV     1   --> B_1  D_3  S_3  
     e(  5 -  5) =      2.18779  eV     1   --> A_1  D_1  S_1  
     e(  6 -  6) =      3.09969  eV     1   --> B_2  D_4  S_4  
     e(  7 -  7) =      3.63235  eV     1   --> A_1  D_1  S_1  
     e(  8 -  8) =      5.54827  eV     1   --> B_2  D_4  S_4  

 **************************************************************************

 **************************************************************************

                    xk=(   0.00000,   0.12830,   0.00000  )

     Band symmetry, C_2v (mm2)  point group:

     e(  1 -  1) =    -20.94277  eV     1   --> A_1  D_1  S_1  
     e(  2 -  2) =     -8.96408  eV     1   --> B_2  D_4  S_4  
     e(  3 -  3) =     -5.85757  eV     1   --> A_1  D_1  S_1  
     e(  4 -  4) =     -5.31239  eV     1   --> B_1  D_3  S_3  
     e(  5 -  5) =      1.96481  eV     1   --> A_1  D_1  S_1  
     e(  6 -  6) =      2.87538  eV     1   --> B_2  D_4  S_4  
     e(  7 -  7) =      3.40549  eV     1   --> A_1  D_1  S_1  
     e(  8 -  8) =      5.32600  eV     1   --> B_2  D_4  S_4  

 **************************************************************************

 **************************************************************************

                    xk=(   0.00000,   0.09623,   0.00000  )

     Band symmetry, C_2v (mm2)  point group:

     e(  1 -  1) =    -21.06999  eV     1   --> A_1  D_1  S_1  
     e(  2 -  2) =     -9.11622  eV     1   --> B_2  D_4  S_4  
     e(  3 -  3) =     -5.39182  eV     1   --> A_1  D_1  S_1  
     e(  4 -  4) =     -5.07774  eV     1   --> B_1  D_3  S_3  
     e(  5 -  5) =      1.79136  eV     1   --> A_1  D_1  S_1  
     e(  6 -  6) =      2.70077  eV     1   --> B_2  D_4  S_4  
     e(  7 -  7) =      3.22905  eV     1   --> A_1  D_1  S_1  
     e(  8 -  8) =      5.15279  eV     1   --> B_2  D_4  S_4  

 **************************************************************************

 **************************************************************************

                    xk=(   0.00000,   0.06415,   0.00000  )

     Band symmetry, C_2v (mm2)  point group:

     e(  1 -  1) =    -21.16102  eV     1   --> A_1  D_1  S_1  
     e(  2 -  2) =     -9.22532  eV     1   --> B_2  D_4  S_4  
     e(  3 -  3) =     -5.03709  eV     1   --> A_1  D_1  S_1  
     e(  4 -  4) =     -4.89461  eV     1   --> B_1  D_3  S_3  
     e(  5 -  5) =      1.66748  eV     1   --> A_1  D_1  S_1  
     e(  6 -  6) =      2.57594  eV     1   --> B_2  D_4  S_4  
     e(  7 -  7) =      3.10303  eV     1   --> A_1  D_1  S_1  
     e(  8 -  8) =      5.02891  eV     1   --> B_2  D_4  S_4  

 **************************************************************************

 **************************************************************************

                    xk=(   0.00000,   0.03208,   0.00000  )

     Band symmetry, C_2v (mm2)  point group:

     e(  1 -  1) =    -21.21558  eV     1   --> A_1  D_1  S_1  
     e(  2 -  2) =     -9.29062  eV     1   --> B_2  D_4  S_4  
     e(  3 -  3) =     -4.81312  eV     1   --> A_1  D_1  S_1  
     e(  4 -  4) =     -4.77688  eV     1   --> B_1  D_3  S_3  
     e(  5 -  5) =      1.59316  eV     1   --> A_1  D_1  S_1  
     e(  6 -  6) =      2.50104  eV     1   --> B_2  D_4  S_4  
     e(  7 -  7) =      3.02743  eV     1   --> A_1  D_1  S_1  
     e(  8 -  8) =      4.95457  eV     1   --> B_2  D_4  S_4  

 **************************************************************************

 **************************************************************************

                    xk=(   0.00000,   0.00000,   0.00000  )

     point group D_6h(6/mmm)
     there are 12 classes
     the character table:

       E     2C6   2C3   C2    3C2'  3C2'' i     2S3   2S6   s_h   3s_d  3s_v 
A_1g   1.00  1.00  1.00  1.00  1.00  1.00  1.00  1.00  1.00  1.00  1.00  1.00
A_2g   1.00  1.00  1.00  1.00 -1.00 -1.00  1.00  1.00  1.00  1.00 -1.00 -1.00
B_1g   1.00 -1.00  1.00 -1.00  1.00 -1.00  1.00 -1.00  1.00 -1.00  1.00 -1.00
B_2g   1.00 -1.00  1.00 -1.00 -1.00  1.00  1.00 -1.00  1.00 -1.00 -1.00  1.00
E_1g   2.00  1.00 -1.00 -2.00  0.00  0.00  2.00  1.00 -1.00 -2.00  0.00  0.00
E_2g   2.00 -1.00 -1.00  2.00  0.00  0.00  2.00 -1.00 -1.00  2.00  0.00  0.00
A_1u   1.00  1.00  1.00  1.00  1.00  1.00 -1.00 -1.00 -1.00 -1.00 -1.00 -1.00
A_2u   1.00  1.00  1.00  1.00 -1.00 -1.00 -1.00 -1.00 -1.00 -1.00  1.00  1.00
B_1u   1.00 -1.00  1.00 -1.00  1.00 -1.00 -1.00  1.00 -1.00  1.00 -1.00  1.00
B_2u   1.00 -1.00  1.00 -1.00 -1.00  1.00 -1.00  1.00 -1.00  1.00  1.00 -1.00
E_1u   2.00  1.00 -1.00 -2.00  0.00  0.00 -2.00 -1.00  1.00  2.00  0.00  0.00
E_2u   2.00 -1.00 -1.00  2.00  0.00  0.00 -2.00  1.00  1.00 -2.00  0.00  0.00

     the symmetry operations in each class and the name of the first element:

     E        1
                                                                 
     2C6      5    6
                                                                 
     2C3      7    8
                                                                 
     C2       2
                                                                 
     3C2'     4   12   11
                                                                 
     3C2''    3    9   10
                                                                 
     i       13
                                                                 
     2S3     17   18
                                                                 
     2S6     19   20
                                                                 
     s_h     14
                                                                 
     3s_d    16   24   23
                                                                 
     3s_v    15   21   22
                                                                 

     Band symmetry, D_6h(6/mmm) point group:

     e(  1 -  1) =    -21.23384  eV     1   --> A_1g           
     e(  2 -  2) =     -9.31253  eV     1   --> A_2u           
     e(  3 -  4) =     -4.73663  eV     2   --> E_2g           
     e(  5 -  5) =      1.56838  eV     1   --> A_1g           
     e(  6 -  6) =      2.47605  eV     1   --> A_2u           
     e(  7 -  7) =      3.00223  eV     1   --> A_1g           
     e(  8 -  8) =      4.92976  eV     1   --> A_2u           

 **************************************************************************

     BANDS        :      2.97s CPU      3.03s WALL


   This run was terminated on:   6:23: 6  27Mar2024            

=------------------------------------------------------------------------------=
   JOB DONE.
=------------------------------------------------------------------------------=
