
     Program PWSCF v.7.2 starts on 16Apr2024 at 14:26:23 

     This program is part of the open-source Quantum ESPRESSO suite
     for quantum simulation of materials; please cite
         "P. Giannozzi et al., J. Phys.:Condens. Matter 21 395502 (2009);
         "P. Giannozzi et al., J. Phys.:Condens. Matter 29 465901 (2017);
         "P. Giannozzi et al., J. Chem. Phys. 152 154105 (2020);
          URL http://www.quantum-espresso.org", 
     in publications or presentations arising from this work. More details at
     http://www.quantum-espresso.org/quote

     Parallel version (MPI & OpenMP), running on       8 processor cores
     Number of MPI processes:                 8
     Threads/MPI process:                     1

     MPI processes distributed on     1 nodes
     0 MiB available memory on the printing compute node when the environment starts

     Waiting for input...
     Reading input from standard input
Warning: card / ignored
Warning: card $IONS ignored
Warning: card / ignored
Warning: card $CELL ignored
Warning: card / ignored

     Current dimensions of program PWSCF are:
     Max number of different atomic species (ntypx) = 10
     Max number of k-points (npk) =  40000
     Max angular momentum in pseudopotentials (lmaxx) =  4

     Atomic positions and unit cell read from directory:
     ./tmp/hBN_1l_PBE_vdW.save/
     Atomic positions from file used, from input discarded


     IMPORTANT: XC functional enforced from input :
     Exchange-correlation= VDW-DF2-B86R
                           (   1   4  26   0   2   0   0)
     Any further DFT definition will be discarded
     Please, verify this is what you really want


     R & G space division:  proc/nbgrp/npool/nimage =       8
     Subspace diagonalization in iterative solution of the eigenvalue problem:
     a serial algorithm will be used


     Parallelization info
     --------------------
     sticks:   dense  smooth     PW     G-vecs:    dense   smooth      PW
     Min          45      45     15                 4333     4333     755
     Max          46      46     16                 4356     4356     767
     Sum         367     367    121                34803    34803    6103

     Using Slab Decomposition



     bravais-lattice index     =            4
     lattice parameter (alat)  =       4.7470  a.u.
     unit-cell volume          =     555.8269 (a.u.)^3
     number of atoms/cell      =            2
     number of atomic types    =            2
     number of electrons       =         8.00
     number of Kohn-Sham states=           16
     kinetic-energy cutoff     =      60.0000  Ry
     charge density cutoff     =     240.0000  Ry
     Exchange-correlation= VDW-DF2-B86R
                           (   1   4  26   0   2   0   0)

     celldm(1)=   4.747000  celldm(2)=   0.000000  celldm(3)=   6.000000
     celldm(4)=   0.000000  celldm(5)=   0.000000  celldm(6)=   0.000000

     crystal axes: (cart. coord. in units of alat)
               a(1) = (   1.000000   0.000000   0.000000 )  
               a(2) = (  -0.500000   0.866025   0.000000 )  
               a(3) = (   0.000000   0.000000   6.000000 )  

     reciprocal axes: (cart. coord. in units 2 pi/alat)
               b(1) = (  1.000000  0.577350 -0.000000 )  
               b(2) = (  0.000000  1.154701  0.000000 )  
               b(3) = (  0.000000 -0.000000  0.166667 )  


     PseudoPot. # 1 for N  read from file:
     ../../../Pseudo/PBE/N.upf
     MD5 check sum: d34365f73bb0e2ee98afc20ec3e87676
     Pseudo is Norm-conserving + core correction, Zval =  5.0
     Generated using ONCVPSP code by D. R. Hamann
     Using radial grid of 1058 points,  4 beta functions with: 
                l(1) =   0
                l(2) =   0
                l(3) =   1
                l(4) =   1

     PseudoPot. # 2 for B  read from file:
     ../../../Pseudo/PBE/B.upf
     MD5 check sum: 72f82fc31bc892420d0cab7e25c88ab8
     Pseudo is Norm-conserving + core correction, Zval =  3.0
     Generated using ONCVPSP code by D. R. Hamann
     Using radial grid of 1534 points,  4 beta functions with: 
                l(1) =   0
                l(2) =   0
                l(3) =   1
                l(4) =   1

     atomic species   valence    mass     pseudopotential
        N              5.00    14.00670     N ( 1.00)
        B              3.00    10.80100     B ( 1.00)

     12 Sym. Ops. (no inversion) found


                                    s                        frac. trans.

      isym =  1     identity                                     

 cryst.   s( 1) = (     1          0          0      )
                  (     0          1          0      )
                  (     0          0          1      )

 cart.    s( 1) = (  1.0000000  0.0000000  0.0000000 )
                  (  0.0000000  1.0000000  0.0000000 )
                  (  0.0000000  0.0000000  1.0000000 )


      isym =  2     180 deg rotation - cart. axis [0,1,0]        

 cryst.   s( 2) = (    -1          0          0      )
                  (     1          1          0      )
                  (     0          0         -1      )

 cart.    s( 2) = ( -1.0000000  0.0000000  0.0000000 )
                  (  0.0000000  1.0000000  0.0000000 )
                  (  0.0000000  0.0000000 -1.0000000 )


      isym =  3     120 deg rotation - cryst. axis [0,0,1]       

 cryst.   s( 3) = (     0          1          0      )
                  (    -1         -1          0      )
                  (     0          0          1      )

 cart.    s( 3) = ( -0.5000000 -0.8660254  0.0000000 )
                  (  0.8660254 -0.5000000  0.0000000 )
                  (  0.0000000  0.0000000  1.0000000 )


      isym =  4     120 deg rotation - cryst. axis [0,0,-1]      

 cryst.   s( 4) = (    -1         -1          0      )
                  (     1          0          0      )
                  (     0          0          1      )

 cart.    s( 4) = ( -0.5000000  0.8660254  0.0000000 )
                  ( -0.8660254 -0.5000000  0.0000000 )
                  (  0.0000000  0.0000000  1.0000000 )


      isym =  5     180 deg rotation - cryst. axis [1,-1,0]      

 cryst.   s( 5) = (     0         -1          0      )
                  (    -1          0          0      )
                  (     0          0         -1      )

 cart.    s( 5) = (  0.5000000 -0.8660254  0.0000000 )
                  ( -0.8660254 -0.5000000  0.0000000 )
                  (  0.0000000  0.0000000 -1.0000000 )


      isym =  6     180 deg rotation - cryst. axis [2,1,0]       

 cryst.   s( 6) = (     1          1          0      )
                  (     0         -1          0      )
                  (     0          0         -1      )

 cart.    s( 6) = (  0.5000000  0.8660254  0.0000000 )
                  (  0.8660254 -0.5000000  0.0000000 )
                  (  0.0000000  0.0000000 -1.0000000 )


      isym =  7     inv. 180 deg rotation - cart. axis [0,0,1]   

 cryst.   s( 7) = (     1          0          0      )
                  (     0          1          0      )
                  (     0          0         -1      )

 cart.    s( 7) = (  1.0000000  0.0000000  0.0000000 )
                  (  0.0000000  1.0000000  0.0000000 )
                  (  0.0000000  0.0000000 -1.0000000 )


      isym =  8     inv. 180 deg rotation - cart. axis [1,0,0]   

 cryst.   s( 8) = (    -1          0          0      )
                  (     1          1          0      )
                  (     0          0          1      )

 cart.    s( 8) = ( -1.0000000  0.0000000  0.0000000 )
                  (  0.0000000  1.0000000  0.0000000 )
                  (  0.0000000  0.0000000  1.0000000 )


      isym =  9     inv.  60 deg rotation - cryst. axis [0,0,1]  

 cryst.   s( 9) = (    -1         -1          0      )
                  (     1          0          0      )
                  (     0          0         -1      )

 cart.    s( 9) = ( -0.5000000  0.8660254  0.0000000 )
                  ( -0.8660254 -0.5000000  0.0000000 )
                  (  0.0000000  0.0000000 -1.0000000 )


      isym = 10     inv.  60 deg rotation - cryst. axis [0,0,-1] 

 cryst.   s(10) = (     0          1          0      )
                  (    -1         -1          0      )
                  (     0          0         -1      )

 cart.    s(10) = ( -0.5000000 -0.8660254  0.0000000 )
                  (  0.8660254 -0.5000000  0.0000000 )
                  (  0.0000000  0.0000000 -1.0000000 )


      isym = 11     inv. 180 deg rotation - cryst. axis [0,1,0]  

 cryst.   s(11) = (     1          1          0      )
                  (     0         -1          0      )
                  (     0          0          1      )

 cart.    s(11) = (  0.5000000  0.8660254  0.0000000 )
                  (  0.8660254 -0.5000000  0.0000000 )
                  (  0.0000000  0.0000000  1.0000000 )


      isym = 12     inv. 180 deg rotation - cryst. axis [1,1,0]  

 cryst.   s(12) = (     0         -1          0      )
                  (    -1          0          0      )
                  (     0          0          1      )

 cart.    s(12) = (  0.5000000 -0.8660254  0.0000000 )
                  ( -0.8660254 -0.5000000  0.0000000 )
                  (  0.0000000  0.0000000  1.0000000 )


     point group D_3h (-62m)
     there are  6 classes
     the character table:

       E     2C3   3C2   s_h   2S3   3s_v 
A'_1   1.00  1.00  1.00  1.00  1.00  1.00
A'_2   1.00  1.00 -1.00  1.00  1.00 -1.00
E'     2.00 -1.00  0.00  2.00 -1.00  0.00
A''1   1.00  1.00  1.00 -1.00 -1.00 -1.00
A''2   1.00  1.00 -1.00 -1.00 -1.00  1.00
E''    2.00 -1.00  0.00 -2.00  1.00  0.00

     the symmetry operations in each class and the name of the first element:

     E        1
          identity                                               
     2C3      3    4
          120 deg rotation - cryst. axis [0,0,1]                 
     3C2      2    6    5
          180 deg rotation - cart. axis [0,1,0]                  
     s_h      7
          inv. 180 deg rotation - cart. axis [0,0,1]             
     2S3      9   10
          inv.  60 deg rotation - cryst. axis [0,0,1]            
     3s_v     8   11   12
          inv. 180 deg rotation - cart. axis [1,0,0]             

   Cartesian axes

     site n.     atom                  positions (alat units)
         1           B   tau(   1) = (   0.0000000   0.0000000   0.0000000  )
         2           N   tau(   2) = (  -0.0000000   0.5773503   0.0000000  )

   Crystallographic axes

     site n.     atom                  positions (cryst. coord.)
         1           B   tau(   1) = (  0.0000000  0.0000000  0.0000000  )
         2           N   tau(   2) = (  0.3333333  0.6666667  0.0000000  )

     number of k points=   331  Marzari-Vanderbilt smearing, width (Ry)=  0.0050
                       cart. coord. in units 2pi/alat
        k(    1) = (   0.0000000   0.0000000   0.0000000), wk =   0.0005556
        k(    2) = (   0.0000000   0.0192450   0.0000000), wk =   0.0033333
        k(    3) = (   0.0000000   0.0384900   0.0000000), wk =   0.0033333
        k(    4) = (   0.0000000   0.0577350   0.0000000), wk =   0.0033333
        k(    5) = (   0.0000000   0.0769800   0.0000000), wk =   0.0033333
        k(    6) = (   0.0000000   0.0962250   0.0000000), wk =   0.0033333
        k(    7) = (   0.0000000   0.1154701   0.0000000), wk =   0.0033333
        k(    8) = (   0.0000000   0.1347151   0.0000000), wk =   0.0033333
        k(    9) = (   0.0000000   0.1539601   0.0000000), wk =   0.0033333
        k(   10) = (   0.0000000   0.1732051   0.0000000), wk =   0.0033333
        k(   11) = (   0.0000000   0.1924501   0.0000000), wk =   0.0033333
        k(   12) = (   0.0000000   0.2116951   0.0000000), wk =   0.0033333
        k(   13) = (   0.0000000   0.2309401   0.0000000), wk =   0.0033333
        k(   14) = (   0.0000000   0.2501851   0.0000000), wk =   0.0033333
        k(   15) = (   0.0000000   0.2694301   0.0000000), wk =   0.0033333
        k(   16) = (   0.0000000   0.2886751   0.0000000), wk =   0.0033333
        k(   17) = (   0.0000000   0.3079201   0.0000000), wk =   0.0033333
        k(   18) = (   0.0000000   0.3271652   0.0000000), wk =   0.0033333
        k(   19) = (   0.0000000   0.3464102   0.0000000), wk =   0.0033333
        k(   20) = (   0.0000000   0.3656552   0.0000000), wk =   0.0033333
        k(   21) = (   0.0000000   0.3849002   0.0000000), wk =   0.0033333
        k(   22) = (   0.0000000   0.4041452   0.0000000), wk =   0.0033333
        k(   23) = (   0.0000000   0.4233902   0.0000000), wk =   0.0033333
        k(   24) = (   0.0000000   0.4426352   0.0000000), wk =   0.0033333
        k(   25) = (   0.0000000   0.4618802   0.0000000), wk =   0.0033333
        k(   26) = (   0.0000000   0.4811252   0.0000000), wk =   0.0033333
        k(   27) = (   0.0000000   0.5003702   0.0000000), wk =   0.0033333
        k(   28) = (   0.0000000   0.5196152   0.0000000), wk =   0.0033333
        k(   29) = (   0.0000000   0.5388603   0.0000000), wk =   0.0033333
        k(   30) = (   0.0000000   0.5581053   0.0000000), wk =   0.0033333
        k(   31) = (   0.0000000  -0.5773503   0.0000000), wk =   0.0016667
        k(   32) = (   0.0166667   0.0288675   0.0000000), wk =   0.0033333
        k(   33) = (   0.0166667   0.0481125   0.0000000), wk =   0.0066667
        k(   34) = (   0.0166667   0.0673575   0.0000000), wk =   0.0066667
        k(   35) = (   0.0166667   0.0866025   0.0000000), wk =   0.0066667
        k(   36) = (   0.0166667   0.1058475   0.0000000), wk =   0.0066667
        k(   37) = (   0.0166667   0.1250926   0.0000000), wk =   0.0066667
        k(   38) = (   0.0166667   0.1443376   0.0000000), wk =   0.0066667
        k(   39) = (   0.0166667   0.1635826   0.0000000), wk =   0.0066667
        k(   40) = (   0.0166667   0.1828276   0.0000000), wk =   0.0066667
        k(   41) = (   0.0166667   0.2020726   0.0000000), wk =   0.0066667
        k(   42) = (   0.0166667   0.2213176   0.0000000), wk =   0.0066667
        k(   43) = (   0.0166667   0.2405626   0.0000000), wk =   0.0066667
        k(   44) = (   0.0166667   0.2598076   0.0000000), wk =   0.0066667
        k(   45) = (   0.0166667   0.2790526   0.0000000), wk =   0.0066667
        k(   46) = (   0.0166667   0.2982976   0.0000000), wk =   0.0066667
        k(   47) = (   0.0166667   0.3175426   0.0000000), wk =   0.0066667
        k(   48) = (   0.0166667   0.3367877   0.0000000), wk =   0.0066667
        k(   49) = (   0.0166667   0.3560327   0.0000000), wk =   0.0066667
        k(   50) = (   0.0166667   0.3752777   0.0000000), wk =   0.0066667
        k(   51) = (   0.0166667   0.3945227   0.0000000), wk =   0.0066667
        k(   52) = (   0.0166667   0.4137677   0.0000000), wk =   0.0066667
        k(   53) = (   0.0166667   0.4330127   0.0000000), wk =   0.0066667
        k(   54) = (   0.0166667   0.4522577   0.0000000), wk =   0.0066667
        k(   55) = (   0.0166667   0.4715027   0.0000000), wk =   0.0066667
        k(   56) = (   0.0166667   0.4907477   0.0000000), wk =   0.0066667
        k(   57) = (   0.0166667   0.5099927   0.0000000), wk =   0.0066667
        k(   58) = (   0.0166667   0.5292377   0.0000000), wk =   0.0066667
        k(   59) = (   0.0166667   0.5484828   0.0000000), wk =   0.0066667
        k(   60) = (   0.0166667   0.5677278   0.0000000), wk =   0.0066667
        k(   61) = (   0.0333333   0.0577350   0.0000000), wk =   0.0033333
        k(   62) = (   0.0333333   0.0769800   0.0000000), wk =   0.0066667
        k(   63) = (   0.0333333   0.0962250   0.0000000), wk =   0.0066667
        k(   64) = (   0.0333333   0.1154701   0.0000000), wk =   0.0066667
        k(   65) = (   0.0333333   0.1347151   0.0000000), wk =   0.0066667
        k(   66) = (   0.0333333   0.1539601   0.0000000), wk =   0.0066667
        k(   67) = (   0.0333333   0.1732051   0.0000000), wk =   0.0066667
        k(   68) = (   0.0333333   0.1924501   0.0000000), wk =   0.0066667
        k(   69) = (   0.0333333   0.2116951   0.0000000), wk =   0.0066667
        k(   70) = (   0.0333333   0.2309401   0.0000000), wk =   0.0066667
        k(   71) = (   0.0333333   0.2501851   0.0000000), wk =   0.0066667
        k(   72) = (   0.0333333   0.2694301   0.0000000), wk =   0.0066667
        k(   73) = (   0.0333333   0.2886751   0.0000000), wk =   0.0066667
        k(   74) = (   0.0333333   0.3079201   0.0000000), wk =   0.0066667
        k(   75) = (   0.0333333   0.3271652   0.0000000), wk =   0.0066667
        k(   76) = (   0.0333333   0.3464102   0.0000000), wk =   0.0066667
        k(   77) = (   0.0333333   0.3656552   0.0000000), wk =   0.0066667
        k(   78) = (   0.0333333   0.3849002   0.0000000), wk =   0.0066667
        k(   79) = (   0.0333333   0.4041452   0.0000000), wk =   0.0066667
        k(   80) = (   0.0333333   0.4233902   0.0000000), wk =   0.0066667
        k(   81) = (   0.0333333   0.4426352   0.0000000), wk =   0.0066667
        k(   82) = (   0.0333333   0.4618802   0.0000000), wk =   0.0066667
        k(   83) = (   0.0333333   0.4811252   0.0000000), wk =   0.0066667
        k(   84) = (   0.0333333   0.5003702   0.0000000), wk =   0.0066667
        k(   85) = (   0.0333333   0.5196152   0.0000000), wk =   0.0066667
        k(   86) = (   0.0333333   0.5388603   0.0000000), wk =   0.0066667
        k(   87) = (   0.0333333   0.5581053   0.0000000), wk =   0.0066667
        k(   88) = (   0.0333333   0.5773503   0.0000000), wk =   0.0033333
        k(   89) = (   0.0500000   0.0866025   0.0000000), wk =   0.0033333
        k(   90) = (   0.0500000   0.1058475   0.0000000), wk =   0.0066667
        k(   91) = (   0.0500000   0.1250926   0.0000000), wk =   0.0066667
        k(   92) = (   0.0500000   0.1443376   0.0000000), wk =   0.0066667
        k(   93) = (   0.0500000   0.1635826   0.0000000), wk =   0.0066667
        k(   94) = (   0.0500000   0.1828276   0.0000000), wk =   0.0066667
        k(   95) = (   0.0500000   0.2020726   0.0000000), wk =   0.0066667
        k(   96) = (   0.0500000   0.2213176   0.0000000), wk =   0.0066667
        k(   97) = (   0.0500000   0.2405626   0.0000000), wk =   0.0066667
        k(   98) = (   0.0500000   0.2598076   0.0000000), wk =   0.0066667
        k(   99) = (   0.0500000   0.2790526   0.0000000), wk =   0.0066667
        k(  100) = (   0.0500000   0.2982976   0.0000000), wk =   0.0066667
        k(  101) = (   0.0500000   0.3175426   0.0000000), wk =   0.0066667
        k(  102) = (   0.0500000   0.3367877   0.0000000), wk =   0.0066667
        k(  103) = (   0.0500000   0.3560327   0.0000000), wk =   0.0066667
        k(  104) = (   0.0500000   0.3752777   0.0000000), wk =   0.0066667
        k(  105) = (   0.0500000   0.3945227   0.0000000), wk =   0.0066667
        k(  106) = (   0.0500000   0.4137677   0.0000000), wk =   0.0066667
        k(  107) = (   0.0500000   0.4330127   0.0000000), wk =   0.0066667
        k(  108) = (   0.0500000   0.4522577   0.0000000), wk =   0.0066667
        k(  109) = (   0.0500000   0.4715027   0.0000000), wk =   0.0066667
        k(  110) = (   0.0500000   0.4907477   0.0000000), wk =   0.0066667
        k(  111) = (   0.0500000   0.5099927   0.0000000), wk =   0.0066667
        k(  112) = (   0.0500000   0.5292377   0.0000000), wk =   0.0066667
        k(  113) = (   0.0500000   0.5484828   0.0000000), wk =   0.0066667
        k(  114) = (   0.0500000   0.5677278   0.0000000), wk =   0.0066667
        k(  115) = (   0.0666667   0.1154701   0.0000000), wk =   0.0033333
        k(  116) = (   0.0666667   0.1347151   0.0000000), wk =   0.0066667
        k(  117) = (   0.0666667   0.1539601   0.0000000), wk =   0.0066667
        k(  118) = (   0.0666667   0.1732051   0.0000000), wk =   0.0066667
        k(  119) = (   0.0666667   0.1924501   0.0000000), wk =   0.0066667
        k(  120) = (   0.0666667   0.2116951   0.0000000), wk =   0.0066667
        k(  121) = (   0.0666667   0.2309401   0.0000000), wk =   0.0066667
        k(  122) = (   0.0666667   0.2501851   0.0000000), wk =   0.0066667
        k(  123) = (   0.0666667   0.2694301   0.0000000), wk =   0.0066667
        k(  124) = (   0.0666667   0.2886751   0.0000000), wk =   0.0066667
        k(  125) = (   0.0666667   0.3079201   0.0000000), wk =   0.0066667
        k(  126) = (   0.0666667   0.3271652   0.0000000), wk =   0.0066667
        k(  127) = (   0.0666667   0.3464102   0.0000000), wk =   0.0066667
        k(  128) = (   0.0666667   0.3656552   0.0000000), wk =   0.0066667
        k(  129) = (   0.0666667   0.3849002   0.0000000), wk =   0.0066667
        k(  130) = (   0.0666667   0.4041452   0.0000000), wk =   0.0066667
        k(  131) = (   0.0666667   0.4233902   0.0000000), wk =   0.0066667
        k(  132) = (   0.0666667   0.4426352   0.0000000), wk =   0.0066667
        k(  133) = (   0.0666667   0.4618802   0.0000000), wk =   0.0066667
        k(  134) = (   0.0666667   0.4811252   0.0000000), wk =   0.0066667
        k(  135) = (   0.0666667   0.5003702   0.0000000), wk =   0.0066667
        k(  136) = (   0.0666667   0.5196152   0.0000000), wk =   0.0066667
        k(  137) = (   0.0666667   0.5388603   0.0000000), wk =   0.0066667
        k(  138) = (   0.0666667   0.5581053   0.0000000), wk =   0.0066667
        k(  139) = (   0.0666667   0.5773503   0.0000000), wk =   0.0033333
        k(  140) = (   0.0833333   0.1443376   0.0000000), wk =   0.0033333
        k(  141) = (   0.0833333   0.1635826   0.0000000), wk =   0.0066667
        k(  142) = (   0.0833333   0.1828276   0.0000000), wk =   0.0066667
        k(  143) = (   0.0833333   0.2020726   0.0000000), wk =   0.0066667
        k(  144) = (   0.0833333   0.2213176   0.0000000), wk =   0.0066667
        k(  145) = (   0.0833333   0.2405626   0.0000000), wk =   0.0066667
        k(  146) = (   0.0833333   0.2598076   0.0000000), wk =   0.0066667
        k(  147) = (   0.0833333   0.2790526   0.0000000), wk =   0.0066667
        k(  148) = (   0.0833333   0.2982976   0.0000000), wk =   0.0066667
        k(  149) = (   0.0833333   0.3175426   0.0000000), wk =   0.0066667
        k(  150) = (   0.0833333   0.3367877   0.0000000), wk =   0.0066667
        k(  151) = (   0.0833333   0.3560327   0.0000000), wk =   0.0066667
        k(  152) = (   0.0833333   0.3752777   0.0000000), wk =   0.0066667
        k(  153) = (   0.0833333   0.3945227   0.0000000), wk =   0.0066667
        k(  154) = (   0.0833333   0.4137677   0.0000000), wk =   0.0066667
        k(  155) = (   0.0833333   0.4330127   0.0000000), wk =   0.0066667
        k(  156) = (   0.0833333   0.4522577   0.0000000), wk =   0.0066667
        k(  157) = (   0.0833333   0.4715027   0.0000000), wk =   0.0066667
        k(  158) = (   0.0833333   0.4907477   0.0000000), wk =   0.0066667
        k(  159) = (   0.0833333   0.5099927   0.0000000), wk =   0.0066667
        k(  160) = (   0.0833333   0.5292377   0.0000000), wk =   0.0066667
        k(  161) = (   0.0833333   0.5484828   0.0000000), wk =   0.0066667
        k(  162) = (   0.0833333   0.5677278   0.0000000), wk =   0.0066667
        k(  163) = (   0.1000000   0.1732051   0.0000000), wk =   0.0033333
        k(  164) = (   0.1000000   0.1924501   0.0000000), wk =   0.0066667
        k(  165) = (   0.1000000   0.2116951   0.0000000), wk =   0.0066667
        k(  166) = (   0.1000000   0.2309401   0.0000000), wk =   0.0066667
        k(  167) = (   0.1000000   0.2501851   0.0000000), wk =   0.0066667
        k(  168) = (   0.1000000   0.2694301   0.0000000), wk =   0.0066667
        k(  169) = (   0.1000000   0.2886751   0.0000000), wk =   0.0066667
        k(  170) = (   0.1000000   0.3079201   0.0000000), wk =   0.0066667
        k(  171) = (   0.1000000   0.3271652   0.0000000), wk =   0.0066667
        k(  172) = (   0.1000000   0.3464102   0.0000000), wk =   0.0066667
        k(  173) = (   0.1000000   0.3656552   0.0000000), wk =   0.0066667
        k(  174) = (   0.1000000   0.3849002   0.0000000), wk =   0.0066667
        k(  175) = (   0.1000000   0.4041452   0.0000000), wk =   0.0066667
        k(  176) = (   0.1000000   0.4233902   0.0000000), wk =   0.0066667
        k(  177) = (   0.1000000   0.4426352   0.0000000), wk =   0.0066667
        k(  178) = (   0.1000000   0.4618802   0.0000000), wk =   0.0066667
        k(  179) = (   0.1000000   0.4811252   0.0000000), wk =   0.0066667
        k(  180) = (   0.1000000   0.5003702   0.0000000), wk =   0.0066667
        k(  181) = (   0.1000000   0.5196152   0.0000000), wk =   0.0066667
        k(  182) = (   0.1000000   0.5388603   0.0000000), wk =   0.0066667
        k(  183) = (   0.1000000   0.5581053   0.0000000), wk =   0.0066667
        k(  184) = (   0.1000000   0.5773503   0.0000000), wk =   0.0033333
        k(  185) = (   0.1166667   0.2020726   0.0000000), wk =   0.0033333
        k(  186) = (   0.1166667   0.2213176   0.0000000), wk =   0.0066667
        k(  187) = (   0.1166667   0.2405626   0.0000000), wk =   0.0066667
        k(  188) = (   0.1166667   0.2598076   0.0000000), wk =   0.0066667
        k(  189) = (   0.1166667   0.2790526   0.0000000), wk =   0.0066667
        k(  190) = (   0.1166667   0.2982976   0.0000000), wk =   0.0066667
        k(  191) = (   0.1166667   0.3175426   0.0000000), wk =   0.0066667
        k(  192) = (   0.1166667   0.3367877   0.0000000), wk =   0.0066667
        k(  193) = (   0.1166667   0.3560327   0.0000000), wk =   0.0066667
        k(  194) = (   0.1166667   0.3752777   0.0000000), wk =   0.0066667
        k(  195) = (   0.1166667   0.3945227   0.0000000), wk =   0.0066667
        k(  196) = (   0.1166667   0.4137677   0.0000000), wk =   0.0066667
        k(  197) = (   0.1166667   0.4330127   0.0000000), wk =   0.0066667
        k(  198) = (   0.1166667   0.4522577   0.0000000), wk =   0.0066667
        k(  199) = (   0.1166667   0.4715027   0.0000000), wk =   0.0066667
        k(  200) = (   0.1166667   0.4907477   0.0000000), wk =   0.0066667
        k(  201) = (   0.1166667   0.5099927   0.0000000), wk =   0.0066667
        k(  202) = (   0.1166667   0.5292377   0.0000000), wk =   0.0066667
        k(  203) = (   0.1166667   0.5484828   0.0000000), wk =   0.0066667
        k(  204) = (   0.1166667   0.5677278   0.0000000), wk =   0.0066667
        k(  205) = (   0.1333333   0.2309401   0.0000000), wk =   0.0033333
        k(  206) = (   0.1333333   0.2501851   0.0000000), wk =   0.0066667
        k(  207) = (   0.1333333   0.2694301   0.0000000), wk =   0.0066667
        k(  208) = (   0.1333333   0.2886751   0.0000000), wk =   0.0066667
        k(  209) = (   0.1333333   0.3079201   0.0000000), wk =   0.0066667
        k(  210) = (   0.1333333   0.3271652   0.0000000), wk =   0.0066667
        k(  211) = (   0.1333333   0.3464102   0.0000000), wk =   0.0066667
        k(  212) = (   0.1333333   0.3656552   0.0000000), wk =   0.0066667
        k(  213) = (   0.1333333   0.3849002   0.0000000), wk =   0.0066667
        k(  214) = (   0.1333333   0.4041452   0.0000000), wk =   0.0066667
        k(  215) = (   0.1333333   0.4233902   0.0000000), wk =   0.0066667
        k(  216) = (   0.1333333   0.4426352   0.0000000), wk =   0.0066667
        k(  217) = (   0.1333333   0.4618802   0.0000000), wk =   0.0066667
        k(  218) = (   0.1333333   0.4811252   0.0000000), wk =   0.0066667
        k(  219) = (   0.1333333   0.5003702   0.0000000), wk =   0.0066667
        k(  220) = (   0.1333333   0.5196152   0.0000000), wk =   0.0066667
        k(  221) = (   0.1333333   0.5388603   0.0000000), wk =   0.0066667
        k(  222) = (   0.1333333   0.5581053   0.0000000), wk =   0.0066667
        k(  223) = (   0.1333333   0.5773503   0.0000000), wk =   0.0033333
        k(  224) = (   0.1500000   0.2598076   0.0000000), wk =   0.0033333
        k(  225) = (   0.1500000   0.2790526   0.0000000), wk =   0.0066667
        k(  226) = (   0.1500000   0.2982976   0.0000000), wk =   0.0066667
        k(  227) = (   0.1500000   0.3175426   0.0000000), wk =   0.0066667
        k(  228) = (   0.1500000   0.3367877   0.0000000), wk =   0.0066667
        k(  229) = (   0.1500000   0.3560327   0.0000000), wk =   0.0066667
        k(  230) = (   0.1500000   0.3752777   0.0000000), wk =   0.0066667
        k(  231) = (   0.1500000   0.3945227   0.0000000), wk =   0.0066667
        k(  232) = (   0.1500000   0.4137677   0.0000000), wk =   0.0066667
        k(  233) = (   0.1500000   0.4330127   0.0000000), wk =   0.0066667
        k(  234) = (   0.1500000   0.4522577   0.0000000), wk =   0.0066667
        k(  235) = (   0.1500000   0.4715027   0.0000000), wk =   0.0066667
        k(  236) = (   0.1500000   0.4907477   0.0000000), wk =   0.0066667
        k(  237) = (   0.1500000   0.5099927   0.0000000), wk =   0.0066667
        k(  238) = (   0.1500000   0.5292377   0.0000000), wk =   0.0066667
        k(  239) = (   0.1500000   0.5484828   0.0000000), wk =   0.0066667
        k(  240) = (   0.1500000   0.5677278   0.0000000), wk =   0.0066667
        k(  241) = (   0.1666667   0.2886751   0.0000000), wk =   0.0033333
        k(  242) = (   0.1666667   0.3079201   0.0000000), wk =   0.0066667
        k(  243) = (   0.1666667   0.3271652   0.0000000), wk =   0.0066667
        k(  244) = (   0.1666667   0.3464102   0.0000000), wk =   0.0066667
        k(  245) = (   0.1666667   0.3656552   0.0000000), wk =   0.0066667
        k(  246) = (   0.1666667   0.3849002   0.0000000), wk =   0.0066667
        k(  247) = (   0.1666667   0.4041452   0.0000000), wk =   0.0066667
        k(  248) = (   0.1666667   0.4233902   0.0000000), wk =   0.0066667
        k(  249) = (   0.1666667   0.4426352   0.0000000), wk =   0.0066667
        k(  250) = (   0.1666667   0.4618802   0.0000000), wk =   0.0066667
        k(  251) = (   0.1666667   0.4811252   0.0000000), wk =   0.0066667
        k(  252) = (   0.1666667   0.5003702   0.0000000), wk =   0.0066667
        k(  253) = (   0.1666667   0.5196152   0.0000000), wk =   0.0066667
        k(  254) = (   0.1666667   0.5388603   0.0000000), wk =   0.0066667
        k(  255) = (   0.1666667   0.5581053   0.0000000), wk =   0.0066667
        k(  256) = (   0.1666667   0.5773503   0.0000000), wk =   0.0033333
        k(  257) = (   0.1833333   0.3175426   0.0000000), wk =   0.0033333
        k(  258) = (   0.1833333   0.3367877   0.0000000), wk =   0.0066667
        k(  259) = (   0.1833333   0.3560327   0.0000000), wk =   0.0066667
        k(  260) = (   0.1833333   0.3752777   0.0000000), wk =   0.0066667
        k(  261) = (   0.1833333   0.3945227   0.0000000), wk =   0.0066667
        k(  262) = (   0.1833333   0.4137677   0.0000000), wk =   0.0066667
        k(  263) = (   0.1833333   0.4330127   0.0000000), wk =   0.0066667
        k(  264) = (   0.1833333   0.4522577   0.0000000), wk =   0.0066667
        k(  265) = (   0.1833333   0.4715027   0.0000000), wk =   0.0066667
        k(  266) = (   0.1833333   0.4907477   0.0000000), wk =   0.0066667
        k(  267) = (   0.1833333   0.5099927   0.0000000), wk =   0.0066667
        k(  268) = (   0.1833333   0.5292377   0.0000000), wk =   0.0066667
        k(  269) = (   0.1833333   0.5484828   0.0000000), wk =   0.0066667
        k(  270) = (   0.1833333   0.5677278   0.0000000), wk =   0.0066667
        k(  271) = (   0.2000000   0.3464102   0.0000000), wk =   0.0033333
        k(  272) = (   0.2000000   0.3656552   0.0000000), wk =   0.0066667
        k(  273) = (   0.2000000   0.3849002   0.0000000), wk =   0.0066667
        k(  274) = (   0.2000000   0.4041452   0.0000000), wk =   0.0066667
        k(  275) = (   0.2000000   0.4233902   0.0000000), wk =   0.0066667
        k(  276) = (   0.2000000   0.4426352   0.0000000), wk =   0.0066667
        k(  277) = (   0.2000000   0.4618802   0.0000000), wk =   0.0066667
        k(  278) = (   0.2000000   0.4811252   0.0000000), wk =   0.0066667
        k(  279) = (   0.2000000   0.5003702   0.0000000), wk =   0.0066667
        k(  280) = (   0.2000000   0.5196152   0.0000000), wk =   0.0066667
        k(  281) = (   0.2000000   0.5388603   0.0000000), wk =   0.0066667
        k(  282) = (   0.2000000   0.5581053   0.0000000), wk =   0.0066667
        k(  283) = (   0.2000000   0.5773503   0.0000000), wk =   0.0033333
        k(  284) = (   0.2166667   0.3752777   0.0000000), wk =   0.0033333
        k(  285) = (   0.2166667   0.3945227   0.0000000), wk =   0.0066667
        k(  286) = (   0.2166667   0.4137677   0.0000000), wk =   0.0066667
        k(  287) = (   0.2166667   0.4330127   0.0000000), wk =   0.0066667
        k(  288) = (   0.2166667   0.4522577   0.0000000), wk =   0.0066667
        k(  289) = (   0.2166667   0.4715027   0.0000000), wk =   0.0066667
        k(  290) = (   0.2166667   0.4907477   0.0000000), wk =   0.0066667
        k(  291) = (   0.2166667   0.5099927   0.0000000), wk =   0.0066667
        k(  292) = (   0.2166667   0.5292377   0.0000000), wk =   0.0066667
        k(  293) = (   0.2166667   0.5484828   0.0000000), wk =   0.0066667
        k(  294) = (   0.2166667   0.5677278   0.0000000), wk =   0.0066667
        k(  295) = (   0.2333333   0.4041452   0.0000000), wk =   0.0033333
        k(  296) = (   0.2333333   0.4233902   0.0000000), wk =   0.0066667
        k(  297) = (   0.2333333   0.4426352   0.0000000), wk =   0.0066667
        k(  298) = (   0.2333333   0.4618802   0.0000000), wk =   0.0066667
        k(  299) = (   0.2333333   0.4811252   0.0000000), wk =   0.0066667
        k(  300) = (   0.2333333   0.5003702   0.0000000), wk =   0.0066667
        k(  301) = (   0.2333333   0.5196152   0.0000000), wk =   0.0066667
        k(  302) = (   0.2333333   0.5388603   0.0000000), wk =   0.0066667
        k(  303) = (   0.2333333   0.5581053   0.0000000), wk =   0.0066667
        k(  304) = (   0.2333333   0.5773503   0.0000000), wk =   0.0033333
        k(  305) = (   0.2500000   0.4330127   0.0000000), wk =   0.0033333
        k(  306) = (   0.2500000   0.4522577   0.0000000), wk =   0.0066667
        k(  307) = (   0.2500000   0.4715027   0.0000000), wk =   0.0066667
        k(  308) = (   0.2500000   0.4907477   0.0000000), wk =   0.0066667
        k(  309) = (   0.2500000   0.5099927   0.0000000), wk =   0.0066667
        k(  310) = (   0.2500000   0.5292377   0.0000000), wk =   0.0066667
        k(  311) = (   0.2500000   0.5484828   0.0000000), wk =   0.0066667
        k(  312) = (   0.2500000   0.5677278   0.0000000), wk =   0.0066667
        k(  313) = (   0.2666667   0.4618802   0.0000000), wk =   0.0033333
        k(  314) = (   0.2666667   0.4811252   0.0000000), wk =   0.0066667
        k(  315) = (   0.2666667   0.5003702   0.0000000), wk =   0.0066667
        k(  316) = (   0.2666667   0.5196152   0.0000000), wk =   0.0066667
        k(  317) = (   0.2666667   0.5388603   0.0000000), wk =   0.0066667
        k(  318) = (   0.2666667   0.5581053   0.0000000), wk =   0.0066667
        k(  319) = (   0.2666667   0.5773503   0.0000000), wk =   0.0033333
        k(  320) = (   0.2833333   0.4907477   0.0000000), wk =   0.0033333
        k(  321) = (   0.2833333   0.5099927   0.0000000), wk =   0.0066667
        k(  322) = (   0.2833333   0.5292377   0.0000000), wk =   0.0066667
        k(  323) = (   0.2833333   0.5484828   0.0000000), wk =   0.0066667
        k(  324) = (   0.2833333   0.5677278   0.0000000), wk =   0.0066667
        k(  325) = (   0.3000000   0.5196152   0.0000000), wk =   0.0033333
        k(  326) = (   0.3000000   0.5388603   0.0000000), wk =   0.0066667
        k(  327) = (   0.3000000   0.5581053   0.0000000), wk =   0.0066667
        k(  328) = (   0.3000000   0.5773503   0.0000000), wk =   0.0033333
        k(  329) = (   0.3166667   0.5484828   0.0000000), wk =   0.0033333
        k(  330) = (   0.3166667   0.5677278   0.0000000), wk =   0.0066667
        k(  331) = (   0.3333333   0.5773503   0.0000000), wk =   0.0011111

                       cryst. coord.
        k(    1) = (   0.0000000   0.0000000   0.0000000), wk =   0.0005556
        k(    2) = (   0.0000000   0.0166667   0.0000000), wk =   0.0033333
        k(    3) = (   0.0000000   0.0333333   0.0000000), wk =   0.0033333
        k(    4) = (   0.0000000   0.0500000   0.0000000), wk =   0.0033333
        k(    5) = (   0.0000000   0.0666667   0.0000000), wk =   0.0033333
        k(    6) = (   0.0000000   0.0833333   0.0000000), wk =   0.0033333
        k(    7) = (   0.0000000   0.1000000   0.0000000), wk =   0.0033333
        k(    8) = (   0.0000000   0.1166667   0.0000000), wk =   0.0033333
        k(    9) = (   0.0000000   0.1333333   0.0000000), wk =   0.0033333
        k(   10) = (   0.0000000   0.1500000   0.0000000), wk =   0.0033333
        k(   11) = (   0.0000000   0.1666667   0.0000000), wk =   0.0033333
        k(   12) = (   0.0000000   0.1833333   0.0000000), wk =   0.0033333
        k(   13) = (   0.0000000   0.2000000   0.0000000), wk =   0.0033333
        k(   14) = (   0.0000000   0.2166667   0.0000000), wk =   0.0033333
        k(   15) = (   0.0000000   0.2333333   0.0000000), wk =   0.0033333
        k(   16) = (   0.0000000   0.2500000   0.0000000), wk =   0.0033333
        k(   17) = (   0.0000000   0.2666667   0.0000000), wk =   0.0033333
        k(   18) = (   0.0000000   0.2833333   0.0000000), wk =   0.0033333
        k(   19) = (   0.0000000   0.3000000   0.0000000), wk =   0.0033333
        k(   20) = (   0.0000000   0.3166667   0.0000000), wk =   0.0033333
        k(   21) = (   0.0000000   0.3333333   0.0000000), wk =   0.0033333
        k(   22) = (   0.0000000   0.3500000   0.0000000), wk =   0.0033333
        k(   23) = (   0.0000000   0.3666667   0.0000000), wk =   0.0033333
        k(   24) = (   0.0000000   0.3833333   0.0000000), wk =   0.0033333
        k(   25) = (   0.0000000   0.4000000   0.0000000), wk =   0.0033333
        k(   26) = (   0.0000000   0.4166667   0.0000000), wk =   0.0033333
        k(   27) = (   0.0000000   0.4333333   0.0000000), wk =   0.0033333
        k(   28) = (   0.0000000   0.4500000   0.0000000), wk =   0.0033333
        k(   29) = (   0.0000000   0.4666667   0.0000000), wk =   0.0033333
        k(   30) = (   0.0000000   0.4833333   0.0000000), wk =   0.0033333
        k(   31) = (   0.0000000  -0.5000000   0.0000000), wk =   0.0016667
        k(   32) = (   0.0166667   0.0166667   0.0000000), wk =   0.0033333
        k(   33) = (   0.0166667   0.0333333   0.0000000), wk =   0.0066667
        k(   34) = (   0.0166667   0.0500000   0.0000000), wk =   0.0066667
        k(   35) = (   0.0166667   0.0666667   0.0000000), wk =   0.0066667
        k(   36) = (   0.0166667   0.0833333   0.0000000), wk =   0.0066667
        k(   37) = (   0.0166667   0.1000000   0.0000000), wk =   0.0066667
        k(   38) = (   0.0166667   0.1166667   0.0000000), wk =   0.0066667
        k(   39) = (   0.0166667   0.1333333   0.0000000), wk =   0.0066667
        k(   40) = (   0.0166667   0.1500000   0.0000000), wk =   0.0066667
        k(   41) = (   0.0166667   0.1666667   0.0000000), wk =   0.0066667
        k(   42) = (   0.0166667   0.1833333   0.0000000), wk =   0.0066667
        k(   43) = (   0.0166667   0.2000000   0.0000000), wk =   0.0066667
        k(   44) = (   0.0166667   0.2166667   0.0000000), wk =   0.0066667
        k(   45) = (   0.0166667   0.2333333   0.0000000), wk =   0.0066667
        k(   46) = (   0.0166667   0.2500000   0.0000000), wk =   0.0066667
        k(   47) = (   0.0166667   0.2666667   0.0000000), wk =   0.0066667
        k(   48) = (   0.0166667   0.2833333   0.0000000), wk =   0.0066667
        k(   49) = (   0.0166667   0.3000000   0.0000000), wk =   0.0066667
        k(   50) = (   0.0166667   0.3166667   0.0000000), wk =   0.0066667
        k(   51) = (   0.0166667   0.3333333   0.0000000), wk =   0.0066667
        k(   52) = (   0.0166667   0.3500000   0.0000000), wk =   0.0066667
        k(   53) = (   0.0166667   0.3666667   0.0000000), wk =   0.0066667
        k(   54) = (   0.0166667   0.3833333   0.0000000), wk =   0.0066667
        k(   55) = (   0.0166667   0.4000000   0.0000000), wk =   0.0066667
        k(   56) = (   0.0166667   0.4166667   0.0000000), wk =   0.0066667
        k(   57) = (   0.0166667   0.4333333   0.0000000), wk =   0.0066667
        k(   58) = (   0.0166667   0.4500000   0.0000000), wk =   0.0066667
        k(   59) = (   0.0166667   0.4666667   0.0000000), wk =   0.0066667
        k(   60) = (   0.0166667   0.4833333   0.0000000), wk =   0.0066667
        k(   61) = (   0.0333333   0.0333333   0.0000000), wk =   0.0033333
        k(   62) = (   0.0333333   0.0500000   0.0000000), wk =   0.0066667
        k(   63) = (   0.0333333   0.0666667   0.0000000), wk =   0.0066667
        k(   64) = (   0.0333333   0.0833333   0.0000000), wk =   0.0066667
        k(   65) = (   0.0333333   0.1000000   0.0000000), wk =   0.0066667
        k(   66) = (   0.0333333   0.1166667   0.0000000), wk =   0.0066667
        k(   67) = (   0.0333333   0.1333333   0.0000000), wk =   0.0066667
        k(   68) = (   0.0333333   0.1500000   0.0000000), wk =   0.0066667
        k(   69) = (   0.0333333   0.1666667   0.0000000), wk =   0.0066667
        k(   70) = (   0.0333333   0.1833333   0.0000000), wk =   0.0066667
        k(   71) = (   0.0333333   0.2000000   0.0000000), wk =   0.0066667
        k(   72) = (   0.0333333   0.2166667   0.0000000), wk =   0.0066667
        k(   73) = (   0.0333333   0.2333333   0.0000000), wk =   0.0066667
        k(   74) = (   0.0333333   0.2500000   0.0000000), wk =   0.0066667
        k(   75) = (   0.0333333   0.2666667   0.0000000), wk =   0.0066667
        k(   76) = (   0.0333333   0.2833333   0.0000000), wk =   0.0066667
        k(   77) = (   0.0333333   0.3000000   0.0000000), wk =   0.0066667
        k(   78) = (   0.0333333   0.3166667   0.0000000), wk =   0.0066667
        k(   79) = (   0.0333333   0.3333333   0.0000000), wk =   0.0066667
        k(   80) = (   0.0333333   0.3500000   0.0000000), wk =   0.0066667
        k(   81) = (   0.0333333   0.3666667   0.0000000), wk =   0.0066667
        k(   82) = (   0.0333333   0.3833333   0.0000000), wk =   0.0066667
        k(   83) = (   0.0333333   0.4000000   0.0000000), wk =   0.0066667
        k(   84) = (   0.0333333   0.4166667   0.0000000), wk =   0.0066667
        k(   85) = (   0.0333333   0.4333333   0.0000000), wk =   0.0066667
        k(   86) = (   0.0333333   0.4500000   0.0000000), wk =   0.0066667
        k(   87) = (   0.0333333   0.4666667   0.0000000), wk =   0.0066667
        k(   88) = (   0.0333333   0.4833333   0.0000000), wk =   0.0033333
        k(   89) = (   0.0500000   0.0500000   0.0000000), wk =   0.0033333
        k(   90) = (   0.0500000   0.0666667   0.0000000), wk =   0.0066667
        k(   91) = (   0.0500000   0.0833333   0.0000000), wk =   0.0066667
        k(   92) = (   0.0500000   0.1000000   0.0000000), wk =   0.0066667
        k(   93) = (   0.0500000   0.1166667   0.0000000), wk =   0.0066667
        k(   94) = (   0.0500000   0.1333333   0.0000000), wk =   0.0066667
        k(   95) = (   0.0500000   0.1500000   0.0000000), wk =   0.0066667
        k(   96) = (   0.0500000   0.1666667   0.0000000), wk =   0.0066667
        k(   97) = (   0.0500000   0.1833333   0.0000000), wk =   0.0066667
        k(   98) = (   0.0500000   0.2000000   0.0000000), wk =   0.0066667
        k(   99) = (   0.0500000   0.2166667   0.0000000), wk =   0.0066667
        k(  100) = (   0.0500000   0.2333333   0.0000000), wk =   0.0066667
        k(  101) = (   0.0500000   0.2500000   0.0000000), wk =   0.0066667
        k(  102) = (   0.0500000   0.2666667   0.0000000), wk =   0.0066667
        k(  103) = (   0.0500000   0.2833333   0.0000000), wk =   0.0066667
        k(  104) = (   0.0500000   0.3000000   0.0000000), wk =   0.0066667
        k(  105) = (   0.0500000   0.3166667   0.0000000), wk =   0.0066667
        k(  106) = (   0.0500000   0.3333333   0.0000000), wk =   0.0066667
        k(  107) = (   0.0500000   0.3500000   0.0000000), wk =   0.0066667
        k(  108) = (   0.0500000   0.3666667   0.0000000), wk =   0.0066667
        k(  109) = (   0.0500000   0.3833333   0.0000000), wk =   0.0066667
        k(  110) = (   0.0500000   0.4000000   0.0000000), wk =   0.0066667
        k(  111) = (   0.0500000   0.4166667   0.0000000), wk =   0.0066667
        k(  112) = (   0.0500000   0.4333333   0.0000000), wk =   0.0066667
        k(  113) = (   0.0500000   0.4500000   0.0000000), wk =   0.0066667
        k(  114) = (   0.0500000   0.4666667   0.0000000), wk =   0.0066667
        k(  115) = (   0.0666667   0.0666667   0.0000000), wk =   0.0033333
        k(  116) = (   0.0666667   0.0833333   0.0000000), wk =   0.0066667
        k(  117) = (   0.0666667   0.1000000   0.0000000), wk =   0.0066667
        k(  118) = (   0.0666667   0.1166667   0.0000000), wk =   0.0066667
        k(  119) = (   0.0666667   0.1333333   0.0000000), wk =   0.0066667
        k(  120) = (   0.0666667   0.1500000   0.0000000), wk =   0.0066667
        k(  121) = (   0.0666667   0.1666667   0.0000000), wk =   0.0066667
        k(  122) = (   0.0666667   0.1833333   0.0000000), wk =   0.0066667
        k(  123) = (   0.0666667   0.2000000   0.0000000), wk =   0.0066667
        k(  124) = (   0.0666667   0.2166667   0.0000000), wk =   0.0066667
        k(  125) = (   0.0666667   0.2333333   0.0000000), wk =   0.0066667
        k(  126) = (   0.0666667   0.2500000   0.0000000), wk =   0.0066667
        k(  127) = (   0.0666667   0.2666667   0.0000000), wk =   0.0066667
        k(  128) = (   0.0666667   0.2833333   0.0000000), wk =   0.0066667
        k(  129) = (   0.0666667   0.3000000   0.0000000), wk =   0.0066667
        k(  130) = (   0.0666667   0.3166667   0.0000000), wk =   0.0066667
        k(  131) = (   0.0666667   0.3333333   0.0000000), wk =   0.0066667
        k(  132) = (   0.0666667   0.3500000   0.0000000), wk =   0.0066667
        k(  133) = (   0.0666667   0.3666667   0.0000000), wk =   0.0066667
        k(  134) = (   0.0666667   0.3833333   0.0000000), wk =   0.0066667
        k(  135) = (   0.0666667   0.4000000   0.0000000), wk =   0.0066667
        k(  136) = (   0.0666667   0.4166667   0.0000000), wk =   0.0066667
        k(  137) = (   0.0666667   0.4333333   0.0000000), wk =   0.0066667
        k(  138) = (   0.0666667   0.4500000   0.0000000), wk =   0.0066667
        k(  139) = (   0.0666667   0.4666667   0.0000000), wk =   0.0033333
        k(  140) = (   0.0833333   0.0833333   0.0000000), wk =   0.0033333
        k(  141) = (   0.0833333   0.1000000   0.0000000), wk =   0.0066667
        k(  142) = (   0.0833333   0.1166667   0.0000000), wk =   0.0066667
        k(  143) = (   0.0833333   0.1333333   0.0000000), wk =   0.0066667
        k(  144) = (   0.0833333   0.1500000   0.0000000), wk =   0.0066667
        k(  145) = (   0.0833333   0.1666667   0.0000000), wk =   0.0066667
        k(  146) = (   0.0833333   0.1833333   0.0000000), wk =   0.0066667
        k(  147) = (   0.0833333   0.2000000   0.0000000), wk =   0.0066667
        k(  148) = (   0.0833333   0.2166667   0.0000000), wk =   0.0066667
        k(  149) = (   0.0833333   0.2333333   0.0000000), wk =   0.0066667
        k(  150) = (   0.0833333   0.2500000   0.0000000), wk =   0.0066667
        k(  151) = (   0.0833333   0.2666667   0.0000000), wk =   0.0066667
        k(  152) = (   0.0833333   0.2833333   0.0000000), wk =   0.0066667
        k(  153) = (   0.0833333   0.3000000   0.0000000), wk =   0.0066667
        k(  154) = (   0.0833333   0.3166667   0.0000000), wk =   0.0066667
        k(  155) = (   0.0833333   0.3333333   0.0000000), wk =   0.0066667
        k(  156) = (   0.0833333   0.3500000   0.0000000), wk =   0.0066667
        k(  157) = (   0.0833333   0.3666667   0.0000000), wk =   0.0066667
        k(  158) = (   0.0833333   0.3833333   0.0000000), wk =   0.0066667
        k(  159) = (   0.0833333   0.4000000   0.0000000), wk =   0.0066667
        k(  160) = (   0.0833333   0.4166667   0.0000000), wk =   0.0066667
        k(  161) = (   0.0833333   0.4333333   0.0000000), wk =   0.0066667
        k(  162) = (   0.0833333   0.4500000   0.0000000), wk =   0.0066667
        k(  163) = (   0.1000000   0.1000000   0.0000000), wk =   0.0033333
        k(  164) = (   0.1000000   0.1166667   0.0000000), wk =   0.0066667
        k(  165) = (   0.1000000   0.1333333   0.0000000), wk =   0.0066667
        k(  166) = (   0.1000000   0.1500000   0.0000000), wk =   0.0066667
        k(  167) = (   0.1000000   0.1666667   0.0000000), wk =   0.0066667
        k(  168) = (   0.1000000   0.1833333   0.0000000), wk =   0.0066667
        k(  169) = (   0.1000000   0.2000000   0.0000000), wk =   0.0066667
        k(  170) = (   0.1000000   0.2166667   0.0000000), wk =   0.0066667
        k(  171) = (   0.1000000   0.2333333   0.0000000), wk =   0.0066667
        k(  172) = (   0.1000000   0.2500000   0.0000000), wk =   0.0066667
        k(  173) = (   0.1000000   0.2666667   0.0000000), wk =   0.0066667
        k(  174) = (   0.1000000   0.2833333   0.0000000), wk =   0.0066667
        k(  175) = (   0.1000000   0.3000000   0.0000000), wk =   0.0066667
        k(  176) = (   0.1000000   0.3166667   0.0000000), wk =   0.0066667
        k(  177) = (   0.1000000   0.3333333   0.0000000), wk =   0.0066667
        k(  178) = (   0.1000000   0.3500000   0.0000000), wk =   0.0066667
        k(  179) = (   0.1000000   0.3666667   0.0000000), wk =   0.0066667
        k(  180) = (   0.1000000   0.3833333   0.0000000), wk =   0.0066667
        k(  181) = (   0.1000000   0.4000000   0.0000000), wk =   0.0066667
        k(  182) = (   0.1000000   0.4166667   0.0000000), wk =   0.0066667
        k(  183) = (   0.1000000   0.4333333   0.0000000), wk =   0.0066667
        k(  184) = (   0.1000000   0.4500000   0.0000000), wk =   0.0033333
        k(  185) = (   0.1166667   0.1166667   0.0000000), wk =   0.0033333
        k(  186) = (   0.1166667   0.1333333   0.0000000), wk =   0.0066667
        k(  187) = (   0.1166667   0.1500000   0.0000000), wk =   0.0066667
        k(  188) = (   0.1166667   0.1666667   0.0000000), wk =   0.0066667
        k(  189) = (   0.1166667   0.1833333   0.0000000), wk =   0.0066667
        k(  190) = (   0.1166667   0.2000000   0.0000000), wk =   0.0066667
        k(  191) = (   0.1166667   0.2166667   0.0000000), wk =   0.0066667
        k(  192) = (   0.1166667   0.2333333   0.0000000), wk =   0.0066667
        k(  193) = (   0.1166667   0.2500000   0.0000000), wk =   0.0066667
        k(  194) = (   0.1166667   0.2666667   0.0000000), wk =   0.0066667
        k(  195) = (   0.1166667   0.2833333   0.0000000), wk =   0.0066667
        k(  196) = (   0.1166667   0.3000000   0.0000000), wk =   0.0066667
        k(  197) = (   0.1166667   0.3166667   0.0000000), wk =   0.0066667
        k(  198) = (   0.1166667   0.3333333   0.0000000), wk =   0.0066667
        k(  199) = (   0.1166667   0.3500000   0.0000000), wk =   0.0066667
        k(  200) = (   0.1166667   0.3666667   0.0000000), wk =   0.0066667
        k(  201) = (   0.1166667   0.3833333   0.0000000), wk =   0.0066667
        k(  202) = (   0.1166667   0.4000000   0.0000000), wk =   0.0066667
        k(  203) = (   0.1166667   0.4166667   0.0000000), wk =   0.0066667
        k(  204) = (   0.1166667   0.4333333   0.0000000), wk =   0.0066667
        k(  205) = (   0.1333333   0.1333333   0.0000000), wk =   0.0033333
        k(  206) = (   0.1333333   0.1500000   0.0000000), wk =   0.0066667
        k(  207) = (   0.1333333   0.1666667   0.0000000), wk =   0.0066667
        k(  208) = (   0.1333333   0.1833333   0.0000000), wk =   0.0066667
        k(  209) = (   0.1333333   0.2000000   0.0000000), wk =   0.0066667
        k(  210) = (   0.1333333   0.2166667   0.0000000), wk =   0.0066667
        k(  211) = (   0.1333333   0.2333333   0.0000000), wk =   0.0066667
        k(  212) = (   0.1333333   0.2500000   0.0000000), wk =   0.0066667
        k(  213) = (   0.1333333   0.2666667   0.0000000), wk =   0.0066667
        k(  214) = (   0.1333333   0.2833333   0.0000000), wk =   0.0066667
        k(  215) = (   0.1333333   0.3000000   0.0000000), wk =   0.0066667
        k(  216) = (   0.1333333   0.3166667   0.0000000), wk =   0.0066667
        k(  217) = (   0.1333333   0.3333333   0.0000000), wk =   0.0066667
        k(  218) = (   0.1333333   0.3500000   0.0000000), wk =   0.0066667
        k(  219) = (   0.1333333   0.3666667   0.0000000), wk =   0.0066667
        k(  220) = (   0.1333333   0.3833333   0.0000000), wk =   0.0066667
        k(  221) = (   0.1333333   0.4000000   0.0000000), wk =   0.0066667
        k(  222) = (   0.1333333   0.4166667   0.0000000), wk =   0.0066667
        k(  223) = (   0.1333333   0.4333333   0.0000000), wk =   0.0033333
        k(  224) = (   0.1500000   0.1500000   0.0000000), wk =   0.0033333
        k(  225) = (   0.1500000   0.1666667   0.0000000), wk =   0.0066667
        k(  226) = (   0.1500000   0.1833333   0.0000000), wk =   0.0066667
        k(  227) = (   0.1500000   0.2000000   0.0000000), wk =   0.0066667
        k(  228) = (   0.1500000   0.2166667   0.0000000), wk =   0.0066667
        k(  229) = (   0.1500000   0.2333333   0.0000000), wk =   0.0066667
        k(  230) = (   0.1500000   0.2500000   0.0000000), wk =   0.0066667
        k(  231) = (   0.1500000   0.2666667   0.0000000), wk =   0.0066667
        k(  232) = (   0.1500000   0.2833333   0.0000000), wk =   0.0066667
        k(  233) = (   0.1500000   0.3000000   0.0000000), wk =   0.0066667
        k(  234) = (   0.1500000   0.3166667   0.0000000), wk =   0.0066667
        k(  235) = (   0.1500000   0.3333333   0.0000000), wk =   0.0066667
        k(  236) = (   0.1500000   0.3500000   0.0000000), wk =   0.0066667
        k(  237) = (   0.1500000   0.3666667   0.0000000), wk =   0.0066667
        k(  238) = (   0.1500000   0.3833333   0.0000000), wk =   0.0066667
        k(  239) = (   0.1500000   0.4000000   0.0000000), wk =   0.0066667
        k(  240) = (   0.1500000   0.4166667   0.0000000), wk =   0.0066667
        k(  241) = (   0.1666667   0.1666667   0.0000000), wk =   0.0033333
        k(  242) = (   0.1666667   0.1833333   0.0000000), wk =   0.0066667
        k(  243) = (   0.1666667   0.2000000   0.0000000), wk =   0.0066667
        k(  244) = (   0.1666667   0.2166667   0.0000000), wk =   0.0066667
        k(  245) = (   0.1666667   0.2333333   0.0000000), wk =   0.0066667
        k(  246) = (   0.1666667   0.2500000   0.0000000), wk =   0.0066667
        k(  247) = (   0.1666667   0.2666667   0.0000000), wk =   0.0066667
        k(  248) = (   0.1666667   0.2833333   0.0000000), wk =   0.0066667
        k(  249) = (   0.1666667   0.3000000   0.0000000), wk =   0.0066667
        k(  250) = (   0.1666667   0.3166667   0.0000000), wk =   0.0066667
        k(  251) = (   0.1666667   0.3333333   0.0000000), wk =   0.0066667
        k(  252) = (   0.1666667   0.3500000   0.0000000), wk =   0.0066667
        k(  253) = (   0.1666667   0.3666667   0.0000000), wk =   0.0066667
        k(  254) = (   0.1666667   0.3833333   0.0000000), wk =   0.0066667
        k(  255) = (   0.1666667   0.4000000   0.0000000), wk =   0.0066667
        k(  256) = (   0.1666667   0.4166667   0.0000000), wk =   0.0033333
        k(  257) = (   0.1833333   0.1833333   0.0000000), wk =   0.0033333
        k(  258) = (   0.1833333   0.2000000   0.0000000), wk =   0.0066667
        k(  259) = (   0.1833333   0.2166667   0.0000000), wk =   0.0066667
        k(  260) = (   0.1833333   0.2333333   0.0000000), wk =   0.0066667
        k(  261) = (   0.1833333   0.2500000   0.0000000), wk =   0.0066667
        k(  262) = (   0.1833333   0.2666667   0.0000000), wk =   0.0066667
        k(  263) = (   0.1833333   0.2833333   0.0000000), wk =   0.0066667
        k(  264) = (   0.1833333   0.3000000   0.0000000), wk =   0.0066667
        k(  265) = (   0.1833333   0.3166667   0.0000000), wk =   0.0066667
        k(  266) = (   0.1833333   0.3333333   0.0000000), wk =   0.0066667
        k(  267) = (   0.1833333   0.3500000   0.0000000), wk =   0.0066667
        k(  268) = (   0.1833333   0.3666667   0.0000000), wk =   0.0066667
        k(  269) = (   0.1833333   0.3833333   0.0000000), wk =   0.0066667
        k(  270) = (   0.1833333   0.4000000   0.0000000), wk =   0.0066667
        k(  271) = (   0.2000000   0.2000000   0.0000000), wk =   0.0033333
        k(  272) = (   0.2000000   0.2166667   0.0000000), wk =   0.0066667
        k(  273) = (   0.2000000   0.2333333   0.0000000), wk =   0.0066667
        k(  274) = (   0.2000000   0.2500000   0.0000000), wk =   0.0066667
        k(  275) = (   0.2000000   0.2666667   0.0000000), wk =   0.0066667
        k(  276) = (   0.2000000   0.2833333   0.0000000), wk =   0.0066667
        k(  277) = (   0.2000000   0.3000000   0.0000000), wk =   0.0066667
        k(  278) = (   0.2000000   0.3166667   0.0000000), wk =   0.0066667
        k(  279) = (   0.2000000   0.3333333   0.0000000), wk =   0.0066667
        k(  280) = (   0.2000000   0.3500000   0.0000000), wk =   0.0066667
        k(  281) = (   0.2000000   0.3666667   0.0000000), wk =   0.0066667
        k(  282) = (   0.2000000   0.3833333   0.0000000), wk =   0.0066667
        k(  283) = (   0.2000000   0.4000000   0.0000000), wk =   0.0033333
        k(  284) = (   0.2166667   0.2166667   0.0000000), wk =   0.0033333
        k(  285) = (   0.2166667   0.2333333   0.0000000), wk =   0.0066667
        k(  286) = (   0.2166667   0.2500000   0.0000000), wk =   0.0066667
        k(  287) = (   0.2166667   0.2666667   0.0000000), wk =   0.0066667
        k(  288) = (   0.2166667   0.2833333   0.0000000), wk =   0.0066667
        k(  289) = (   0.2166667   0.3000000   0.0000000), wk =   0.0066667
        k(  290) = (   0.2166667   0.3166667   0.0000000), wk =   0.0066667
        k(  291) = (   0.2166667   0.3333333   0.0000000), wk =   0.0066667
        k(  292) = (   0.2166667   0.3500000   0.0000000), wk =   0.0066667
        k(  293) = (   0.2166667   0.3666667   0.0000000), wk =   0.0066667
        k(  294) = (   0.2166667   0.3833333   0.0000000), wk =   0.0066667
        k(  295) = (   0.2333333   0.2333333   0.0000000), wk =   0.0033333
        k(  296) = (   0.2333333   0.2500000   0.0000000), wk =   0.0066667
        k(  297) = (   0.2333333   0.2666667   0.0000000), wk =   0.0066667
        k(  298) = (   0.2333333   0.2833333   0.0000000), wk =   0.0066667
        k(  299) = (   0.2333333   0.3000000   0.0000000), wk =   0.0066667
        k(  300) = (   0.2333333   0.3166667   0.0000000), wk =   0.0066667
        k(  301) = (   0.2333333   0.3333333   0.0000000), wk =   0.0066667
        k(  302) = (   0.2333333   0.3500000   0.0000000), wk =   0.0066667
        k(  303) = (   0.2333333   0.3666667   0.0000000), wk =   0.0066667
        k(  304) = (   0.2333333   0.3833333   0.0000000), wk =   0.0033333
        k(  305) = (   0.2500000   0.2500000   0.0000000), wk =   0.0033333
        k(  306) = (   0.2500000   0.2666667   0.0000000), wk =   0.0066667
        k(  307) = (   0.2500000   0.2833333   0.0000000), wk =   0.0066667
        k(  308) = (   0.2500000   0.3000000   0.0000000), wk =   0.0066667
        k(  309) = (   0.2500000   0.3166667   0.0000000), wk =   0.0066667
        k(  310) = (   0.2500000   0.3333333   0.0000000), wk =   0.0066667
        k(  311) = (   0.2500000   0.3500000   0.0000000), wk =   0.0066667
        k(  312) = (   0.2500000   0.3666667   0.0000000), wk =   0.0066667
        k(  313) = (   0.2666667   0.2666667   0.0000000), wk =   0.0033333
        k(  314) = (   0.2666667   0.2833333   0.0000000), wk =   0.0066667
        k(  315) = (   0.2666667   0.3000000   0.0000000), wk =   0.0066667
        k(  316) = (   0.2666667   0.3166667   0.0000000), wk =   0.0066667
        k(  317) = (   0.2666667   0.3333333   0.0000000), wk =   0.0066667
        k(  318) = (   0.2666667   0.3500000   0.0000000), wk =   0.0066667
        k(  319) = (   0.2666667   0.3666667   0.0000000), wk =   0.0033333
        k(  320) = (   0.2833333   0.2833333   0.0000000), wk =   0.0033333
        k(  321) = (   0.2833333   0.3000000   0.0000000), wk =   0.0066667
        k(  322) = (   0.2833333   0.3166667   0.0000000), wk =   0.0066667
        k(  323) = (   0.2833333   0.3333333   0.0000000), wk =   0.0066667
        k(  324) = (   0.2833333   0.3500000   0.0000000), wk =   0.0066667
        k(  325) = (   0.3000000   0.3000000   0.0000000), wk =   0.0033333
        k(  326) = (   0.3000000   0.3166667   0.0000000), wk =   0.0066667
        k(  327) = (   0.3000000   0.3333333   0.0000000), wk =   0.0066667
        k(  328) = (   0.3000000   0.3500000   0.0000000), wk =   0.0033333
        k(  329) = (   0.3166667   0.3166667   0.0000000), wk =   0.0033333
        k(  330) = (   0.3166667   0.3333333   0.0000000), wk =   0.0066667
        k(  331) = (   0.3333333   0.3333333   0.0000000), wk =   0.0011111

     Dense  grid:    34803 G-vectors     FFT dimensions: (  24,  24, 144)

     Dynamical RAM for                 wfc:       0.13 MB

     Dynamical RAM for     wfc (w. buffer):       0.13 MB

     Dynamical RAM for           str. fact:       0.13 MB

     Dynamical RAM for           local pot:       0.00 MB

     Dynamical RAM for          nlocal pot:       0.13 MB

     Dynamical RAM for                qrad:       0.71 MB

     Dynamical RAM for          rho,v,vnew:       0.44 MB

     Dynamical RAM for           G-vectors:       0.28 MB

     Dynamical RAM for          h,s,v(r/c):       0.05 MB

     Dynamical RAM for          <psi|beta>:       0.00 MB

     Dynamical RAM for                 psi:       0.27 MB

     Dynamical RAM for                hpsi:       0.27 MB

     Dynamical RAM for      wfcinit/wfcrot:       0.27 MB

     Estimated static dynamical RAM per process >       2.42 MB

     Estimated max dynamical RAM per process >       3.01 MB

     Estimated total dynamical RAM >      24.06 MB

     The potential is recalculated from file :
     ./tmp/hBN_1l_PBE_vdW.save/charge-density



     %%%%%%%%%%%%%%%%%%%%%%%%%%%%%%%%%%%%%%%%%%%%%%%%%%%%%%%%%%%%%%%%%%%%%%%%
     %                                                                      %
     % You are using vdW-DF, which was implemented by the Thonhauser group. %
     % Please cite the following two papers that made this development      %
     % possible and the two reviews that describe the various versions:     %
     %                                                                      %
     %   T. Thonhauser et al., PRL 115, 136402 (2015).                      %
     %   T. Thonhauser et al., PRB 76, 125112 (2007).                       %
     %   K. Berland et al., Rep. Prog. Phys. 78, 066501 (2015).             %
     %   D.C. Langreth et al., J. Phys.: Condens. Matter 21, 084203 (2009). %
     %                                                                      %
     % If you are calculating stress with vdW-DF, please also cite:         %
     %                                                                      %
     %   R. Sabatini et al., J. Phys.: Condens. Matter 24, 424209 (2012).   %
     %                                                                      %
     %%%%%%%%%%%%%%%%%%%%%%%%%%%%%%%%%%%%%%%%%%%%%%%%%%%%%%%%%%%%%%%%%%%%%%%%

     %%%%%%%%%%%%%%%%%%%%%%%%%%%%%%%%%%%%%%%%%%%%%%%%%%%%%%%%%%%%%%%%%%%%%%%%
     %                                                                      %
     %  vdW-DF NEWS:                                                        %
     %                                                                      %
     %  * vdW-DF3 is now available. DOI: 10.1021/acs.jctc.0c00471           %
     %    use with input_dft = 'vdW-DF3-opt1' or 'vdW-DF3-opt2'             %
     %                                                                      %
     %  * Unscreened and range-separated hybrid vdW-DF-cx functionals       %
     %    DOI: 10.1063/1.4986522 and 10.1088/1361-648X/ac2ad2               %
     %    use with input_dft = 'vdW-DF-cx0'    and 'vdW-DF-ahcx'            %
     %  * Unscreened and range-separated hybrid vdW-DF2-b86r functionals    %
     %    DOI: 10.1063/1.4986522 and DOI: 10.1103/PhysRevX.12.041003        %
     %    use with input_dft = 'vdW-DF2-br0' and 'vdW-DF2-ahbr'             %
     %                                                                      %
     %%%%%%%%%%%%%%%%%%%%%%%%%%%%%%%%%%%%%%%%%%%%%%%%%%%%%%%%%%%%%%%%%%%%%%%%


     Carrying out vdW-DF run using the following parameters:
     Nqs    =  20  Npoints =  1024  r_max =  100.000
     q_mesh =  0.00001000  0.04494208  0.09755937  0.15916263
               0.23128650  0.31572767  0.41458969  0.53033537
               0.66584808  0.82450364  1.01025438  1.22772762
               1.48234092  1.78043706  2.12944203  2.53805004
               3.01644009  3.57652955  4.23227104  5.00000000


     -----------------------------------------------
     Non-local corr. energy    =       0.10705985 Ry
     -----------------------------------------------

     Starting wfcs are    8 randomized atomic wfcs +    8 random wfcs

     Band Structure Calculation
     Davidson diagonalization with overlap

     Computing kpt #:     1  of   331
     total cpu time spent up to now is        9.9 secs

     Computing kpt #:     2  of   331
     total cpu time spent up to now is       10.0 secs

     Computing kpt #:     3  of   331
     total cpu time spent up to now is       10.1 secs

     Computing kpt #:     4  of   331
     total cpu time spent up to now is       10.2 secs

     Computing kpt #:     5  of   331
     total cpu time spent up to now is       10.2 secs

     Computing kpt #:     6  of   331
     total cpu time spent up to now is       10.3 secs

     Computing kpt #:     7  of   331
     total cpu time spent up to now is       10.4 secs

     Computing kpt #:     8  of   331
     total cpu time spent up to now is       10.5 secs

     Computing kpt #:     9  of   331
     total cpu time spent up to now is       10.5 secs

     Computing kpt #:    10  of   331
     total cpu time spent up to now is       10.6 secs

     Computing kpt #:    11  of   331
     total cpu time spent up to now is       10.7 secs

     Computing kpt #:    12  of   331
     total cpu time spent up to now is       10.8 secs

     Computing kpt #:    13  of   331
     total cpu time spent up to now is       10.9 secs

     Computing kpt #:    14  of   331
     total cpu time spent up to now is       10.9 secs

     Computing kpt #:    15  of   331
     total cpu time spent up to now is       11.0 secs

     Computing kpt #:    16  of   331
     total cpu time spent up to now is       11.1 secs

     Computing kpt #:    17  of   331
     total cpu time spent up to now is       11.2 secs

     Computing kpt #:    18  of   331
     total cpu time spent up to now is       11.3 secs

     Computing kpt #:    19  of   331
     total cpu time spent up to now is       11.4 secs

     Computing kpt #:    20  of   331
     total cpu time spent up to now is       11.5 secs

     Computing kpt #:    21  of   331
     total cpu time spent up to now is       11.5 secs

     Computing kpt #:    22  of   331
     total cpu time spent up to now is       11.6 secs

     Computing kpt #:    23  of   331
     total cpu time spent up to now is       11.7 secs

     Computing kpt #:    24  of   331
     total cpu time spent up to now is       11.8 secs

     Computing kpt #:    25  of   331
     total cpu time spent up to now is       11.9 secs

     Computing kpt #:    26  of   331
     total cpu time spent up to now is       12.0 secs

     Computing kpt #:    27  of   331
     total cpu time spent up to now is       12.2 secs

     Computing kpt #:    28  of   331
     total cpu time spent up to now is       12.3 secs

     Computing kpt #:    29  of   331
     total cpu time spent up to now is       12.4 secs

     Computing kpt #:    30  of   331
     total cpu time spent up to now is       12.5 secs

     Computing kpt #:    31  of   331
     total cpu time spent up to now is       12.7 secs

     Computing kpt #:    32  of   331
     total cpu time spent up to now is       12.8 secs

     Computing kpt #:    33  of   331
     total cpu time spent up to now is       12.8 secs

     Computing kpt #:    34  of   331
     total cpu time spent up to now is       12.9 secs

     Computing kpt #:    35  of   331
     total cpu time spent up to now is       13.0 secs

     Computing kpt #:    36  of   331
     total cpu time spent up to now is       13.1 secs

     Computing kpt #:    37  of   331
     total cpu time spent up to now is       13.2 secs

     Computing kpt #:    38  of   331
     total cpu time spent up to now is       13.3 secs

     Computing kpt #:    39  of   331
     total cpu time spent up to now is       13.3 secs

     Computing kpt #:    40  of   331
     total cpu time spent up to now is       13.4 secs

     Computing kpt #:    41  of   331
     total cpu time spent up to now is       13.5 secs

     Computing kpt #:    42  of   331
     total cpu time spent up to now is       13.6 secs

     Computing kpt #:    43  of   331
     total cpu time spent up to now is       13.7 secs

     Computing kpt #:    44  of   331
     total cpu time spent up to now is       13.8 secs

     Computing kpt #:    45  of   331
     total cpu time spent up to now is       13.8 secs

     Computing kpt #:    46  of   331
     total cpu time spent up to now is       13.9 secs

     Computing kpt #:    47  of   331
     total cpu time spent up to now is       14.0 secs

     Computing kpt #:    48  of   331
     total cpu time spent up to now is       14.1 secs

     Computing kpt #:    49  of   331
     total cpu time spent up to now is       14.2 secs

     Computing kpt #:    50  of   331
     total cpu time spent up to now is       14.2 secs

     Computing kpt #:    51  of   331
     total cpu time spent up to now is       14.3 secs

     Computing kpt #:    52  of   331
     total cpu time spent up to now is       14.5 secs

     Computing kpt #:    53  of   331
     total cpu time spent up to now is       14.6 secs

     Computing kpt #:    54  of   331
     total cpu time spent up to now is       14.7 secs

     Computing kpt #:    55  of   331
     total cpu time spent up to now is       14.8 secs

     Computing kpt #:    56  of   331
     total cpu time spent up to now is       14.9 secs

     Computing kpt #:    57  of   331
     total cpu time spent up to now is       15.1 secs

     Computing kpt #:    58  of   331
     total cpu time spent up to now is       15.2 secs

     Computing kpt #:    59  of   331
     total cpu time spent up to now is       15.3 secs

     Computing kpt #:    60  of   331
     total cpu time spent up to now is       15.5 secs

     Computing kpt #:    61  of   331
     total cpu time spent up to now is       15.5 secs

     Computing kpt #:    62  of   331
     total cpu time spent up to now is       15.6 secs

     Computing kpt #:    63  of   331
     total cpu time spent up to now is       15.7 secs

     Computing kpt #:    64  of   331
     total cpu time spent up to now is       15.8 secs

     Computing kpt #:    65  of   331
     total cpu time spent up to now is       15.9 secs

     Computing kpt #:    66  of   331
     total cpu time spent up to now is       16.0 secs

     Computing kpt #:    67  of   331
     total cpu time spent up to now is       16.0 secs

     Computing kpt #:    68  of   331
     total cpu time spent up to now is       16.1 secs

     Computing kpt #:    69  of   331
     total cpu time spent up to now is       16.2 secs

     Computing kpt #:    70  of   331
     total cpu time spent up to now is       16.3 secs

     Computing kpt #:    71  of   331
     total cpu time spent up to now is       16.4 secs

     Computing kpt #:    72  of   331
     total cpu time spent up to now is       16.5 secs

     Computing kpt #:    73  of   331
     total cpu time spent up to now is       16.5 secs

     Computing kpt #:    74  of   331
     total cpu time spent up to now is       16.6 secs

     Computing kpt #:    75  of   331
     total cpu time spent up to now is       16.7 secs

     Computing kpt #:    76  of   331
     total cpu time spent up to now is       16.8 secs

     Computing kpt #:    77  of   331
     total cpu time spent up to now is       16.9 secs

     Computing kpt #:    78  of   331
     total cpu time spent up to now is       17.0 secs

     Computing kpt #:    79  of   331
     total cpu time spent up to now is       17.1 secs

     Computing kpt #:    80  of   331
     total cpu time spent up to now is       17.2 secs

     Computing kpt #:    81  of   331
     total cpu time spent up to now is       17.4 secs

     Computing kpt #:    82  of   331
     total cpu time spent up to now is       17.5 secs

     Computing kpt #:    83  of   331
     total cpu time spent up to now is       17.6 secs

     Computing kpt #:    84  of   331
     total cpu time spent up to now is       17.7 secs

     Computing kpt #:    85  of   331
     total cpu time spent up to now is       17.8 secs

     Computing kpt #:    86  of   331
     total cpu time spent up to now is       18.0 secs

     Computing kpt #:    87  of   331
     total cpu time spent up to now is       18.1 secs

     Computing kpt #:    88  of   331
     total cpu time spent up to now is       18.2 secs

     Computing kpt #:    89  of   331
     total cpu time spent up to now is       18.3 secs

     Computing kpt #:    90  of   331
     total cpu time spent up to now is       18.4 secs

     Computing kpt #:    91  of   331
     total cpu time spent up to now is       18.4 secs

     Computing kpt #:    92  of   331
     total cpu time spent up to now is       18.5 secs

     Computing kpt #:    93  of   331
     total cpu time spent up to now is       18.6 secs

     Computing kpt #:    94  of   331
     total cpu time spent up to now is       18.7 secs

     Computing kpt #:    95  of   331
     total cpu time spent up to now is       18.8 secs

     Computing kpt #:    96  of   331
     total cpu time spent up to now is       18.8 secs

     Computing kpt #:    97  of   331
     total cpu time spent up to now is       18.9 secs

     Computing kpt #:    98  of   331
     total cpu time spent up to now is       19.0 secs

     Computing kpt #:    99  of   331
     total cpu time spent up to now is       19.1 secs

     Computing kpt #:   100  of   331
     total cpu time spent up to now is       19.1 secs

     Computing kpt #:   101  of   331
     total cpu time spent up to now is       19.2 secs

     Computing kpt #:   102  of   331
     total cpu time spent up to now is       19.3 secs

     Computing kpt #:   103  of   331
     total cpu time spent up to now is       19.4 secs

     Computing kpt #:   104  of   331
     total cpu time spent up to now is       19.5 secs

     Computing kpt #:   105  of   331
     total cpu time spent up to now is       19.6 secs

     Computing kpt #:   106  of   331
     total cpu time spent up to now is       19.7 secs

     Computing kpt #:   107  of   331
     total cpu time spent up to now is       19.8 secs

     Computing kpt #:   108  of   331
     total cpu time spent up to now is       19.9 secs

     Computing kpt #:   109  of   331
     total cpu time spent up to now is       20.0 secs

     Computing kpt #:   110  of   331
     total cpu time spent up to now is       20.1 secs

     Computing kpt #:   111  of   331
     total cpu time spent up to now is       20.2 secs

     Computing kpt #:   112  of   331
     total cpu time spent up to now is       20.3 secs

     Computing kpt #:   113  of   331
     total cpu time spent up to now is       20.5 secs

     Computing kpt #:   114  of   331
     total cpu time spent up to now is       20.6 secs

     Computing kpt #:   115  of   331
     total cpu time spent up to now is       20.6 secs

     Computing kpt #:   116  of   331
     total cpu time spent up to now is       20.7 secs

     Computing kpt #:   117  of   331
     total cpu time spent up to now is       20.8 secs

     Computing kpt #:   118  of   331
     total cpu time spent up to now is       20.9 secs

     Computing kpt #:   119  of   331
     total cpu time spent up to now is       21.0 secs

     Computing kpt #:   120  of   331
     total cpu time spent up to now is       21.1 secs

     Computing kpt #:   121  of   331
     total cpu time spent up to now is       21.2 secs

     Computing kpt #:   122  of   331
     total cpu time spent up to now is       21.2 secs

     Computing kpt #:   123  of   331
     total cpu time spent up to now is       21.3 secs

     Computing kpt #:   124  of   331
     total cpu time spent up to now is       21.4 secs

     Computing kpt #:   125  of   331
     total cpu time spent up to now is       21.5 secs

     Computing kpt #:   126  of   331
     total cpu time spent up to now is       21.6 secs

     Computing kpt #:   127  of   331
     total cpu time spent up to now is       21.7 secs

     Computing kpt #:   128  of   331
     total cpu time spent up to now is       21.8 secs

     Computing kpt #:   129  of   331
     total cpu time spent up to now is       21.8 secs

     Computing kpt #:   130  of   331
     total cpu time spent up to now is       21.9 secs

     Computing kpt #:   131  of   331
     total cpu time spent up to now is       22.0 secs

     Computing kpt #:   132  of   331
     total cpu time spent up to now is       22.1 secs

     Computing kpt #:   133  of   331
     total cpu time spent up to now is       22.2 secs

     Computing kpt #:   134  of   331
     total cpu time spent up to now is       22.3 secs

     Computing kpt #:   135  of   331
     total cpu time spent up to now is       22.4 secs

     Computing kpt #:   136  of   331
     total cpu time spent up to now is       22.6 secs

     Computing kpt #:   137  of   331
     total cpu time spent up to now is       22.7 secs

     Computing kpt #:   138  of   331
     total cpu time spent up to now is       22.8 secs

     Computing kpt #:   139  of   331
     total cpu time spent up to now is       22.9 secs

     Computing kpt #:   140  of   331
     total cpu time spent up to now is       23.0 secs

     Computing kpt #:   141  of   331
     total cpu time spent up to now is       23.1 secs

     Computing kpt #:   142  of   331
     total cpu time spent up to now is       23.2 secs

     Computing kpt #:   143  of   331
     total cpu time spent up to now is       23.2 secs

     Computing kpt #:   144  of   331
     total cpu time spent up to now is       23.3 secs

     Computing kpt #:   145  of   331
     total cpu time spent up to now is       23.4 secs

     Computing kpt #:   146  of   331
     total cpu time spent up to now is       23.5 secs

     Computing kpt #:   147  of   331
     total cpu time spent up to now is       23.6 secs

     Computing kpt #:   148  of   331
     total cpu time spent up to now is       23.6 secs

     Computing kpt #:   149  of   331
     total cpu time spent up to now is       23.7 secs

     Computing kpt #:   150  of   331
     total cpu time spent up to now is       23.8 secs

     Computing kpt #:   151  of   331
     total cpu time spent up to now is       23.9 secs

     Computing kpt #:   152  of   331
     total cpu time spent up to now is       24.0 secs

     Computing kpt #:   153  of   331
     total cpu time spent up to now is       24.1 secs

     Computing kpt #:   154  of   331
     total cpu time spent up to now is       24.2 secs

[...]
     9.6058   9.7293  10.4531  11.5477  11.8768  14.1808  14.5670  14.9477

     occupation numbers 
     1.0000   1.0000   1.0000   1.0000   0.0000   0.0000   0.0000   0.0000
     0.0000   0.0000   0.0000   0.0000   0.0000   0.0000   0.0000   0.0000

          k = 0.2167 0.4523 0.0000 (  4380 PWs)   bands (ev):

   -18.2868 -11.2968  -9.3799  -4.7313   2.0685   6.5106   7.6605   8.5058
     9.7720   9.8541  10.7672  11.5343  12.0688  14.2535  14.2993  15.1890

     occupation numbers 
     1.0000   1.0000   1.0000   1.0000   0.0000   0.0000   0.0000   0.0000
     0.0000   0.0000   0.0000   0.0000   0.0000   0.0000   0.0000   0.0000

          k = 0.2167 0.4715 0.0000 (  4372 PWs)   bands (ev):

   -18.1630 -11.4626  -9.4897  -4.5405   1.8569   6.8876   7.9802   8.9020
     9.7976  10.0585  11.0581  11.5989  12.1859  13.9848  14.1501  14.9292

     occupation numbers 
     1.0000   1.0000   1.0000   1.0000   0.0000   0.0000   0.0000   0.0000
     0.0000   0.0000   0.0000   0.0000   0.0000   0.0000   0.0000   0.0000

          k = 0.2167 0.4907 0.0000 (  4367 PWs)   bands (ev):

   -18.0523 -11.6107  -9.5803  -4.3669   1.6642   7.2689   8.2836   9.2798
     9.8402  10.2177  11.2457  11.7510  12.2581  13.7644  13.7721  14.5125

     occupation numbers 
     1.0000   1.0000   1.0000   1.0000   0.0000   0.0000   0.0000   0.0000
     0.0000   0.0000   0.0000   0.0000   0.0000   0.0000   0.0000   0.0000

          k = 0.2167 0.5100 0.0000 (  4375 PWs)   bands (ev):

   -17.9583 -11.7365  -9.6522  -4.2168   1.4974   7.6475   8.5531   9.5355
    10.0023  10.3562  11.2297  11.9592  12.4097  13.3714  13.4262  14.3443

     occupation numbers 
     1.0000   1.0000   1.0000   1.0000   0.0000   0.0000   0.0000   0.0000
     0.0000   0.0000   0.0000   0.0000   0.0000   0.0000   0.0000   0.0000

          k = 0.2167 0.5292 0.0000 (  4366 PWs)   bands (ev):

   -17.8840 -11.8352  -9.7056  -4.0959   1.3638   8.0099   8.7680   9.5928
    10.3440  10.5074  11.0674  12.1248  12.6083  13.0295  13.0874  14.3319

     occupation numbers 
     1.0000   1.0000   1.0000   1.0000   0.0000   0.0000   0.0000   0.0000
     0.0000   0.0000   0.0000   0.0000   0.0000   0.0000   0.0000   0.0000

          k = 0.2167 0.5485 0.0000 (  4358 PWs)   bands (ev):

   -17.8326 -11.9034  -9.7409  -4.0107   1.2701   8.3271   8.9126   9.5650
    10.6198  10.6810  11.0215  12.0805  12.3507  13.0910  13.0921  14.2883

     occupation numbers 
     1.0000   1.0000   1.0000   1.0000   0.0000   0.0000   0.0000   0.0000
     0.0000   0.0000   0.0000   0.0000   0.0000   0.0000   0.0000   0.0000

          k = 0.2167 0.5677 0.0000 (  4358 PWs)   bands (ev):

   -17.8063 -11.9384  -9.7586  -3.9666   1.2218   8.5342   8.9833   9.5174
    10.5910  10.8254  11.3766  11.8798  11.9304  13.2752  13.3075  14.1704

     occupation numbers 
     1.0000   1.0000   1.0000   1.0000   0.0000   0.0000   0.0000   0.0000
     0.0000   0.0000   0.0000   0.0000   0.0000   0.0000   0.0000   0.0000

          k = 0.2333 0.4041 0.0000 (  4390 PWs)   bands (ev):

   -18.5632 -10.9037  -9.1295  -5.1465   2.5370   5.7780   7.0098   7.7306
     9.3199   9.7413  10.1237  11.5934  11.5945  13.9997  14.5161  15.2118

     occupation numbers 
     1.0000   1.0000   1.0000   1.0000   0.0000   0.0000   0.0000   0.0000
     0.0000   0.0000   0.0000   0.0000   0.0000   0.0000   0.0000   0.0000

          k = 0.2333 0.4234 0.0000 (  4388 PWs)   bands (ev):

   -18.4240 -11.0678  -9.3066  -4.9394   2.3169   6.1306   7.3185   8.1020
     9.5843   9.9226  10.3694  11.5224  11.8089  14.1944  14.7529  14.9213

     occupation numbers 
     1.0000   1.0000   1.0000   1.0000   0.0000   0.0000   0.0000   0.0000
     0.0000   0.0000   0.0000   0.0000   0.0000   0.0000   0.0000   0.0000

          k = 0.2333 0.4426 0.0000 (  4388 PWs)   bands (ev):

   -18.2904 -11.2260  -9.4640  -4.7378   2.1017   6.4950   7.6308   8.4877
     9.8189  10.0070  10.6747  11.5027  12.0339  14.3803  14.4698  15.1054

     occupation numbers 
     1.0000   1.0000   1.0000   1.0000   0.0000   0.0000   0.0000   0.0000
     0.0000   0.0000   0.0000   0.0000   0.0000   0.0000   0.0000   0.0000

          k = 0.2333 0.4619 0.0000 (  4388 PWs)   bands (ev):

   -18.1653 -11.3751  -9.6003  -4.5455   1.8965   6.8693   7.9377   8.8848
    10.0089  10.0436  10.9867  11.5688  12.2300  14.1382  14.3983  15.1973

     occupation numbers 
     1.0000   1.0000   1.0000   1.0000   0.0000   0.0000   0.0000   0.0000
     0.0000   0.0000   0.0000   0.0000   0.0000   0.0000   0.0000   0.0000

          k = 0.2333 0.4811 0.0000 (  4382 PWs)   bands (ev):

   -18.0515 -11.5114  -9.7152  -4.3675   1.7064   7.2506   8.2259   9.2842
    10.0643  10.1576  11.2492  11.7311  12.3670  13.9001  14.0929  14.7633

     occupation numbers 
     1.0000   1.0000   1.0000   1.0000   0.0000   0.0000   0.0000   0.0000
     0.0000   0.0000   0.0000   0.0000   0.0000   0.0000   0.0000   0.0000

          k = 0.2333 0.5004 0.0000 (  4372 PWs)   bands (ev):

   -17.9522 -11.6308  -9.8083  -4.2092   1.5377   7.6341   8.4774   9.6455
    10.1154  10.2961  11.3759  11.9657  12.4864  13.6733  13.7049  14.3905

     occupation numbers 
     1.0000   1.0000   1.0000   1.0000   0.0000   0.0000   0.0000   0.0000
     0.0000   0.0000   0.0000   0.0000   0.0000   0.0000   0.0000   0.0000

          k = 0.2333 0.5196 0.0000 (  4369 PWs)   bands (ev):

   -17.8708 -11.7294  -9.8802  -4.0768   1.3964   8.0109   8.6739   9.8189
    10.3382  10.4625  11.3194  12.2072  12.6684  13.2960  13.3710  14.2897

     occupation numbers 
     1.0000   1.0000   1.0000   1.0000   0.0000   0.0000   0.0000   0.0000
     0.0000   0.0000   0.0000   0.0000   0.0000   0.0000   0.0000   0.0000

          k = 0.2333 0.5389 0.0000 (  4362 PWs)   bands (ev):

   -17.8100 -11.8030  -9.9312  -3.9764   1.2896   8.3631   8.8059   9.8040
    10.6722  10.6911  11.2029  12.2864  12.6972  13.1439  13.1451  14.3306

     occupation numbers 
     1.0000   1.0000   1.0000   1.0000   0.0000   0.0000   0.0000   0.0000
     0.0000   0.0000   0.0000   0.0000   0.0000   0.0000   0.0000   0.0000

          k = 0.2333 0.5581 0.0000 (  4357 PWs)   bands (ev):

   -17.7724 -11.8487  -9.9616  -3.9134   1.2228   8.6486   8.8778   9.7258
    10.8400  10.8929  11.3571  12.1147  12.2835  13.3135  13.3310  14.3366

     occupation numbers 
     1.0000   1.0000   1.0000   1.0000   0.0000   0.0000   0.0000   0.0000
     0.0000   0.0000   0.0000   0.0000   0.0000   0.0000   0.0000   0.0000

          k = 0.2333 0.5774 0.0000 (  4354 PWs)   bands (ev):

   -17.7598 -11.8642  -9.9715  -3.8919   1.2001   8.7712   8.9002   9.6747
    10.8215  11.0059  11.7089  11.8874  11.9941  13.4472  13.4726  14.1808

     occupation numbers 
     1.0000   1.0000   1.0000   1.0000   0.0000   0.0000   0.0000   0.0000
     0.0000   0.0000   0.0000   0.0000   0.0000   0.0000   0.0000   0.0000

          k = 0.2500 0.4330 0.0000 (  4370 PWs)   bands (ev):

   -18.2915 -11.2003  -9.4936  -4.7394   2.1133   6.4898   7.6209   8.4814
     9.8071  10.1134  10.6217  11.4917  12.0145  14.4031  14.5948  15.0423

     occupation numbers 
     1.0000   1.0000   1.0000   1.0000   0.0000   0.0000   0.0000   0.0000
     0.0000   0.0000   0.0000   0.0000   0.0000   0.0000   0.0000   0.0000

          k = 0.2500 0.4523 0.0000 (  4398 PWs)   bands (ev):

   -18.1665 -11.3261  -9.6611  -4.5481   1.9170   6.8596   7.9162   8.8741
     9.9833  10.2084  10.9208  11.5521  12.2360  14.2851  14.5404  15.1015

     occupation numbers 
     1.0000   1.0000   1.0000   1.0000   0.0000   0.0000   0.0000   0.0000
     0.0000   0.0000   0.0000   0.0000   0.0000   0.0000   0.0000   0.0000

          k = 0.2500 0.4715 0.0000 (  4388 PWs)   bands (ev):

   -18.0511 -11.4420  -9.8061  -4.3679   1.7331   7.2382   8.1904   9.2757
    10.1199  10.2516  11.2164  11.7155  12.4354  14.0049  14.3865  14.9046

     occupation numbers 
     1.0000   1.0000   1.0000   1.0000   0.0000   0.0000   0.0000   0.0000
     0.0000   0.0000   0.0000   0.0000   0.0000   0.0000   0.0000   0.0000

          k = 0.2500 0.4907 0.0000 (  4374 PWs)   bands (ev):

   -17.9483 -11.5459  -9.9274  -4.2045   1.5664   7.6218   8.4249   9.6701
    10.2524  10.2807  11.4411  11.9607  12.5845  13.8283  13.9963  14.5536

     occupation numbers 
     1.0000   1.0000   1.0000   1.0000   0.0000   0.0000   0.0000   0.0000
     0.0000   0.0000   0.0000   0.0000   0.0000   0.0000   0.0000   0.0000

          k = 0.2500 0.5100 0.0000 (  4368 PWs)   bands (ev):

   -17.8614 -11.6349 -10.0246  -4.0633   1.4227   8.0039   8.6026   9.9709
    10.3853  10.4226  11.5133  12.2422  12.7280  13.5784  13.6757  14.2484

     occupation numbers 
     1.0000   1.0000   1.0000   1.0000   0.0000   0.0000   0.0000   0.0000
     0.0000   0.0000   0.0000   0.0000   0.0000   0.0000   0.0000   0.0000

          k = 0.2500 0.5292 0.0000 (  4357 PWs)   bands (ev):

   -17.7931 -11.7053 -10.0971  -3.9507   1.3077   8.3726   8.7181  10.0287
    10.6492  10.6988  11.4410  12.4528  12.8833  13.2755  13.3696  14.2329

     occupation numbers 
     1.0000   1.0000   1.0000   1.0000   0.0000   0.0000   0.0000   0.0000
     0.0000   0.0000   0.0000   0.0000   0.0000   0.0000   0.0000   0.0000

          k = 0.2500 0.5485 0.0000 (  4349 PWs)   bands (ev):

   -17.7459 -11.7543 -10.1453  -3.8717   1.2272   8.7014   8.7815   9.9603
    10.9138  11.0099  11.4220  12.3647  12.6801  13.3264  13.3579  14.3279

     occupation numbers 
     1.0000   1.0000   1.0000   1.0000   0.0000   0.0000   0.0000   0.0000
     0.0000   0.0000   0.0000   0.0000   0.0000   0.0000   0.0000   0.0000

          k = 0.2500 0.5677 0.0000 (  4354 PWs)   bands (ev):

   -17.7219 -11.7797 -10.1694  -3.8309   1.1857   8.8083   8.9240   9.8704
    11.0523  11.1373  11.7390  12.1455  12.2339  13.5276  13.5763  14.3099

     occupation numbers 
     1.0000   1.0000   1.0000   1.0000   0.0000   0.0000   0.0000   0.0000
     0.0000   0.0000   0.0000   0.0000   0.0000   0.0000   0.0000   0.0000

          k = 0.2667 0.4619 0.0000 (  4376 PWs)   bands (ev):

   -18.0508 -11.4165  -9.8383  -4.3679   1.7422   7.2339   8.1784   9.2718
    10.1070  10.3273  11.1957  11.7097  12.4560  14.0632  14.5307  14.8585

     occupation numbers 
     1.0000   1.0000   1.0000   1.0000   0.0000   0.0000   0.0000   0.0000
     0.0000   0.0000   0.0000   0.0000   0.0000   0.0000   0.0000   0.0000

          k = 0.2667 0.4811 0.0000 (  4378 PWs)   bands (ev):

   -17.9464 -11.4974  -9.9932  -4.2023   1.5815   7.6147   8.3980   9.6716
    10.2295  10.3930  11.4566  11.9557  12.6511  13.8723  14.2615  14.6045

     occupation numbers 
     1.0000   1.0000   1.0000   1.0000   0.0000   0.0000   0.0000   0.0000
     0.0000   0.0000   0.0000   0.0000   0.0000   0.0000   0.0000   0.0000

          k = 0.2667 0.5004 0.0000 (  4370 PWs)   bands (ev):

   -17.8558 -11.5669 -10.1226  -4.0558   1.4395   7.9971   8.5581  10.0308
    10.3960  10.4690  11.6270  12.2531  12.7974  13.7923  13.8725  14.3118

     occupation numbers 
     1.0000   1.0000   1.0000   1.0000   0.0000   0.0000   0.0000   0.0000
     0.0000   0.0000   0.0000   0.0000   0.0000   0.0000   0.0000   0.0000

          k = 0.2667 0.5196 0.0000 (  4363 PWs)   bands (ev):

   -17.7819 -11.6236 -10.2250  -3.9339   1.3214   8.3720   8.6560  10.1944
    10.6275  10.7113  11.6407  12.5420  12.9459  13.4963  13.6795  14.0981

     occupation numbers 
     1.0000   1.0000   1.0000   1.0000   0.0000   0.0000   0.0000   0.0000
     0.0000   0.0000   0.0000   0.0000   0.0000   0.0000   0.0000   0.0000

          k = 0.2667 0.5389 0.0000 (  4353 PWs)   bands (ev):

   -17.7270 -11.6657 -10.2987  -3.8420   1.2323   8.7058   8.7213  10.1747
    10.9121  11.0737  11.5720  12.6228  13.0025  13.3585  13.4421  14.1451

     occupation numbers 
     1.0000   1.0000   1.0000   1.0000   0.0000   0.0000   0.0000   0.0000
     0.0000   0.0000   0.0000   0.0000   0.0000   0.0000   0.0000   0.0000

          k = 0.2667 0.5581 0.0000 (  4364 PWs)   bands (ev):

   -17.6933 -11.6922 -10.3434  -3.7848   1.1766   8.7265   9.0027  10.0942
    11.2029  11.2416  11.7340  12.3895  12.6445  13.5626  13.5846  14.1564

     occupation numbers 
     1.0000   1.0000   1.0000   1.0000   0.0000   0.0000   0.0000   0.0000
     0.0000   0.0000   0.0000   0.0000   0.0000   0.0000   0.0000   0.0000

          k = 0.2667 0.5774 0.0000 (  4356 PWs)   bands (ev):

   -17.6818 -11.7010 -10.3582  -3.7651   1.1578   8.7319   9.1229  10.0432
    11.2320  11.3574  12.0816  12.2311  12.2603  13.6739  13.7846  14.1159

     occupation numbers 
     1.0000   1.0000   1.0000   1.0000   0.0000   0.0000   0.0000   0.0000
     0.0000   0.0000   0.0000   0.0000   0.0000   0.0000   0.0000   0.0000

          k = 0.2833 0.4907 0.0000 (  4382 PWs)   bands (ev):

   -17.8541 -11.5420 -10.1580  -4.0533   1.4453   7.9943   8.5430  10.0433
    10.3867  10.5093  11.6625  12.2551  12.8311  13.7964  14.0290  14.3461

     occupation numbers 
     1.0000   1.0000   1.0000   1.0000   0.0000   0.0000   0.0000   0.0000
     0.0000   0.0000   0.0000   0.0000   0.0000   0.0000   0.0000   0.0000

          k = 0.2833 0.5100 0.0000 (  4362 PWs)   bands (ev):

   -17.7763 -11.5752 -10.2964  -3.9255   1.3289   8.3700   8.6239  10.2758
    10.6149  10.7305  11.7545  12.5745  12.9733  13.7112  13.8175  14.1036

     occupation numbers 
     1.0000   1.0000   1.0000   1.0000   0.0000   0.0000   0.0000   0.0000
     0.0000   0.0000   0.0000   0.0000   0.0000   0.0000   0.0000   0.0000

          k = 0.2833 0.5292 0.0000 (  4362 PWs)   bands (ev):

   -17.7156 -11.5990 -10.4048  -3.8242   1.2362   8.6577   8.7275  10.3238
    10.9054  11.0958  11.7087  12.8095  13.1249  13.4419  13.6570  14.0298

     occupation numbers 
     1.0000   1.0000   1.0000   1.0000   0.0000   0.0000   0.0000   0.0000
     0.0000   0.0000   0.0000   0.0000   0.0000   0.0000   0.0000   0.0000

          k = 0.2833 0.5485 0.0000 (  4363 PWs)   bands (ev):

   -17.6740 -11.6143 -10.4794  -3.7535   1.1718   8.6666   9.0375  10.2955
    11.2267  11.3665  11.7426  12.6788  13.0316  13.5361  13.5459  14.0305

     occupation numbers 
     1.0000   1.0000   1.0000   1.0000   0.0000   0.0000   0.0000   0.0000
     0.0000   0.0000   0.0000   0.0000   0.0000   0.0000   0.0000   0.0000

          k = 0.2833 0.5677 0.0000 (  4373 PWs)   bands (ev):

   -17.6528 -11.6218 -10.5175  -3.7174   1.1385   8.6671   9.2373  10.2483
    11.3472  11.4996  12.1175  12.4136  12.6095  13.7173  13.7879  13.9421

     occupation numbers 
     1.0000   1.0000   1.0000   1.0000   0.0000   0.0000   0.0000   0.0000
     0.0000   0.0000   0.0000   0.0000   0.0000   0.0000   0.0000   0.0000

          k = 0.3000 0.5196 0.0000 (  4352 PWs)   bands (ev):

   -17.7117 -11.5735 -10.4432  -3.8180   1.2379   8.6413   8.7288  10.3772
    10.9023  11.1034  11.7622  12.8716  13.1350  13.5092  13.7824  14.0425

     occupation numbers 
     1.0000   1.0000   1.0000   1.0000   0.0000   0.0000   0.0000   0.0000
     0.0000   0.0000   0.0000   0.0000   0.0000   0.0000   0.0000   0.0000

          k = 0.3000 0.5389 0.0000 (  4366 PWs)   bands (ev):

   -17.6643 -11.5658 -10.5570  -3.7379   1.1696   8.6351   9.0501  10.4164
    11.2330  11.4293  11.7478  12.9243  13.2647  13.4514  13.5782  14.0209

     occupation numbers 
     1.0000   1.0000   1.0000   1.0000   0.0000   0.0000   0.0000   0.0000
     0.0000   0.0000   0.0000   0.0000   0.0000   0.0000   0.0000   0.0000

          k = 0.3000 0.5581 0.0000 (  4370 PWs)   bands (ev):

   -17.6351 -11.5576 -10.6299  -3.6879   1.1274   8.6245   9.2906  10.4319
    11.3926  11.5631  12.0899  12.6600  13.0111  13.5931  13.6090  13.9694

     occupation numbers 
     1.0000   1.0000   1.0000   1.0000   0.0000   0.0000   0.0000   0.0000
     0.0000   0.0000   0.0000   0.0000   0.0000   0.0000   0.0000   0.0000

          k = 0.3000 0.5774 0.0000 (  4374 PWs)   bands (ev):

   -17.6254 -11.5541 -10.6552  -3.6708   1.1132   8.6198   9.3839  10.4360
    11.3343  11.7457  12.4738  12.4825  12.6354  13.6482  13.6785  13.9678

     occupation numbers 
     1.0000   1.0000   1.0000   1.0000   0.0000   0.0000   0.0000   0.0000
     0.0000   0.0000   0.0000   0.0000   0.0000   0.0000   0.0000   0.0000

          k = 0.3167 0.5485 0.0000 (  4384 PWs)   bands (ev):

   -17.6293 -11.5320 -10.6719  -3.6785   1.1236   8.6097   9.3054  10.5093
    11.3984  11.5795  12.0752  12.8076  13.2708  13.4758  13.4815  13.9372

     occupation numbers 
     1.0000   1.0000   1.0000   1.0000   0.0000   0.0000   0.0000   0.0000
     0.0000   0.0000   0.0000   0.0000   0.0000   0.0000   0.0000   0.0000

          k = 0.3167 0.5677 0.0000 (  4382 PWs)   bands (ev):

   -17.6116 -11.5093 -10.7352  -3.6480   1.1002   8.5940   9.4493  10.5977
    11.2620  11.8754  12.5100  12.5934  12.9828  13.4168  13.4627  13.9949

     occupation numbers 
     1.0000   1.0000   1.0000   1.0000   0.0000   0.0000   0.0000   0.0000
     0.0000   0.0000   0.0000   0.0000   0.0000   0.0000   0.0000   0.0000

          k = 0.3333 0.5774 0.0000 (  4416 PWs)   bands (ev):

   -17.6039 -11.4896 -10.7747  -3.6352   1.0908   8.5831   9.5012  10.7029
    11.1613  12.0352  12.5316  12.8033  12.9919  13.1560  13.3741  14.0075

     occupation numbers 
     1.0000   1.0000   1.0000   1.0000   0.0000   0.0000   0.0000   0.0000
     0.0000   0.0000   0.0000   0.0000   0.0000   0.0000   0.0000   0.0000

     the Fermi energy is    -2.6300 ev
     (compare with:    -1.2453 eV, computed in scf)

     Writing all to output data dir ./tmp/hBN_1l_PBE_vdW.save/

     init_run     :      9.67s CPU      9.77s WALL (       1 calls)
     electrons    :     34.03s CPU     34.97s WALL (       1 calls)

     Called by init_run:
     wfcinit      :      0.00s CPU      0.00s WALL (       1 calls)
     wfcinit:atom :      0.03s CPU      0.03s WALL (     331 calls)
     wfcinit:wfcr :      1.85s CPU      1.92s WALL (     331 calls)
     potinit      :      9.34s CPU      9.43s WALL (       1 calls)
     hinit0       :      0.29s CPU      0.29s WALL (       1 calls)

     Called by electrons:
     c_bands      :     34.02s CPU     34.96s WALL (       1 calls)
     v_of_rho     :      9.34s CPU      9.43s WALL (       1 calls)
     v_h          :      0.00s CPU      0.00s WALL (       1 calls)
     v_xc         :      9.34s CPU      9.43s WALL (       1 calls)
     vdW_kernel   :      9.31s CPU      9.39s WALL (       1 calls)

     Called by c_bands:
     init_us_2    :      0.04s CPU      0.04s WALL (     331 calls)
     init_us_2:cp :      0.04s CPU      0.04s WALL (     331 calls)
     cegterg      :     31.93s CPU     32.73s WALL (     427 calls)

     Called by sum_band:

     Called by *egterg:
     cdiaghg      :      2.30s CPU      2.35s WALL (    6239 calls)
     cegterg:over :      2.74s CPU      2.80s WALL (    5908 calls)
     cegterg:upda :      2.06s CPU      1.93s WALL (    5908 calls)
     cegterg:last :      3.45s CPU      2.84s WALL (    4346 calls)
     h_psi        :     21.80s CPU     23.04s WALL (    6666 calls)
     g_psi        :      0.22s CPU      0.32s WALL (    5908 calls)

     Called by h_psi:
     h_psi:calbec :      0.90s CPU      0.94s WALL (    6666 calls)
     vloc_psi     :     19.63s CPU     20.70s WALL (    6666 calls)
     add_vuspsi   :      1.11s CPU      1.20s WALL (    6666 calls)

     General routines
     calbec       :      0.89s CPU      0.92s WALL (    6666 calls)
     fft          :      0.26s CPU      0.27s WALL (      61 calls)
     fftw         :     17.73s CPU     18.57s WALL (  137788 calls)
     davcio       :      0.00s CPU      0.07s WALL (     662 calls)

     Parallel routines

     PWSCF        :     44.70s CPU     46.24s WALL


   This run was terminated on:  14:27: 9  16Apr2024            

=------------------------------------------------------------------------------=
   JOB DONE.
=------------------------------------------------------------------------------=
