
     Program PWSCF v.7.2 starts on 16Apr2024 at 14:26: 8 

     This program is part of the open-source Quantum ESPRESSO suite
     for quantum simulation of materials; please cite
         "P. Giannozzi et al., J. Phys.:Condens. Matter 21 395502 (2009);
         "P. Giannozzi et al., J. Phys.:Condens. Matter 29 465901 (2017);
         "P. Giannozzi et al., J. Chem. Phys. 152 154105 (2020);
          URL http://www.quantum-espresso.org", 
     in publications or presentations arising from this work. More details at
     http://www.quantum-espresso.org/quote

     Parallel version (MPI & OpenMP), running on       8 processor cores
     Number of MPI processes:                 8
     Threads/MPI process:                     1

     MPI processes distributed on     1 nodes
     0 MiB available memory on the printing compute node when the environment starts

     Waiting for input...
     Reading input from standard input
Warning: card $CELL ignored
Warning: card / ignored

     Current dimensions of program PWSCF are:
     Max number of different atomic species (ntypx) = 10
     Max number of k-points (npk) =  40000
     Max angular momentum in pseudopotentials (lmaxx) =  4

     IMPORTANT: XC functional enforced from input :
     Exchange-correlation= VDW-DF2-B86R
                           (   1   4  26   0   2   0   0)
     Any further DFT definition will be discarded
     Please, verify this is what you really want


     R & G space division:  proc/nbgrp/npool/nimage =       8
     Subspace diagonalization in iterative solution of the eigenvalue problem:
     a serial algorithm will be used


     Parallelization info
     --------------------
     sticks:   dense  smooth     PW     G-vecs:    dense   smooth      PW
     Min          45      45     14                 4333     4333     740
     Max          46      46     16                 4356     4356     749
     Sum         367     367    121                34803    34803    5957

     Using Slab Decomposition



     bravais-lattice index     =            4
     lattice parameter (alat)  =       4.7470  a.u.
     unit-cell volume          =     555.8269 (a.u.)^3
     number of atoms/cell      =            2
     number of atomic types    =            2
     number of electrons       =         8.00
     number of Kohn-Sham states=            8
     kinetic-energy cutoff     =      60.0000  Ry
     charge density cutoff     =     240.0000  Ry
     scf convergence threshold =      1.0E-07
     mixing beta               =       0.7000
     number of iterations used =            8  plain     mixing
     Exchange-correlation= VDW-DF2-B86R
                           (   1   4  26   0   2   0   0)

     celldm(1)=   4.747000  celldm(2)=   0.000000  celldm(3)=   6.000000
     celldm(4)=   0.000000  celldm(5)=   0.000000  celldm(6)=   0.000000

     crystal axes: (cart. coord. in units of alat)
               a(1) = (   1.000000   0.000000   0.000000 )  
               a(2) = (  -0.500000   0.866025   0.000000 )  
               a(3) = (   0.000000   0.000000   6.000000 )  

     reciprocal axes: (cart. coord. in units 2 pi/alat)
               b(1) = (  1.000000  0.577350 -0.000000 )  
               b(2) = (  0.000000  1.154701  0.000000 )  
               b(3) = (  0.000000 -0.000000  0.166667 )  


     PseudoPot. # 1 for N  read from file:
     ../../../Pseudo/PBE/N.upf
     MD5 check sum: d34365f73bb0e2ee98afc20ec3e87676
     Pseudo is Norm-conserving + core correction, Zval =  5.0
     Generated using ONCVPSP code by D. R. Hamann
     Using radial grid of 1058 points,  4 beta functions with: 
                l(1) =   0
                l(2) =   0
                l(3) =   1
                l(4) =   1

     PseudoPot. # 2 for B  read from file:
     ../../../Pseudo/PBE/B.upf
     MD5 check sum: 72f82fc31bc892420d0cab7e25c88ab8
     Pseudo is Norm-conserving + core correction, Zval =  3.0
     Generated using ONCVPSP code by D. R. Hamann
     Using radial grid of 1534 points,  4 beta functions with: 
                l(1) =   0
                l(2) =   0
                l(3) =   1
                l(4) =   1

     atomic species   valence    mass     pseudopotential
        N              5.00    14.00670     N ( 1.00)
        B              3.00    10.80100     B ( 1.00)

     12 Sym. Ops. (no inversion) found


                                    s                        frac. trans.

      isym =  1     identity                                     

 cryst.   s( 1) = (     1          0          0      )
                  (     0          1          0      )
                  (     0          0          1      )

 cart.    s( 1) = (  1.0000000  0.0000000  0.0000000 )
                  (  0.0000000  1.0000000  0.0000000 )
                  (  0.0000000  0.0000000  1.0000000 )


      isym =  2     180 deg rotation - cart. axis [0,1,0]        

 cryst.   s( 2) = (    -1          0          0      )
                  (     1          1          0      )
                  (     0          0         -1      )

 cart.    s( 2) = ( -1.0000000  0.0000000  0.0000000 )
                  (  0.0000000  1.0000000  0.0000000 )
                  (  0.0000000  0.0000000 -1.0000000 )


      isym =  3     120 deg rotation - cryst. axis [0,0,1]       

 cryst.   s( 3) = (     0          1          0      )
                  (    -1         -1          0      )
                  (     0          0          1      )

 cart.    s( 3) = ( -0.5000000 -0.8660254  0.0000000 )
                  (  0.8660254 -0.5000000  0.0000000 )
                  (  0.0000000  0.0000000  1.0000000 )


      isym =  4     120 deg rotation - cryst. axis [0,0,-1]      

 cryst.   s( 4) = (    -1         -1          0      )
                  (     1          0          0      )
                  (     0          0          1      )

 cart.    s( 4) = ( -0.5000000  0.8660254  0.0000000 )
                  ( -0.8660254 -0.5000000  0.0000000 )
                  (  0.0000000  0.0000000  1.0000000 )


      isym =  5     180 deg rotation - cryst. axis [1,-1,0]      

 cryst.   s( 5) = (     0         -1          0      )
                  (    -1          0          0      )
                  (     0          0         -1      )

 cart.    s( 5) = (  0.5000000 -0.8660254  0.0000000 )
                  ( -0.8660254 -0.5000000  0.0000000 )
                  (  0.0000000  0.0000000 -1.0000000 )


      isym =  6     180 deg rotation - cryst. axis [2,1,0]       

 cryst.   s( 6) = (     1          1          0      )
                  (     0         -1          0      )
                  (     0          0         -1      )

 cart.    s( 6) = (  0.5000000  0.8660254  0.0000000 )
                  (  0.8660254 -0.5000000  0.0000000 )
                  (  0.0000000  0.0000000 -1.0000000 )


      isym =  7     inv. 180 deg rotation - cart. axis [0,0,1]   

 cryst.   s( 7) = (     1          0          0      )
                  (     0          1          0      )
                  (     0          0         -1      )

 cart.    s( 7) = (  1.0000000  0.0000000  0.0000000 )
                  (  0.0000000  1.0000000  0.0000000 )
                  (  0.0000000  0.0000000 -1.0000000 )


      isym =  8     inv. 180 deg rotation - cart. axis [1,0,0]   

 cryst.   s( 8) = (    -1          0          0      )
                  (     1          1          0      )
                  (     0          0          1      )

 cart.    s( 8) = ( -1.0000000  0.0000000  0.0000000 )
                  (  0.0000000  1.0000000  0.0000000 )
                  (  0.0000000  0.0000000  1.0000000 )


      isym =  9     inv.  60 deg rotation - cryst. axis [0,0,1]  

 cryst.   s( 9) = (    -1         -1          0      )
                  (     1          0          0      )
                  (     0          0         -1      )

 cart.    s( 9) = ( -0.5000000  0.8660254  0.0000000 )
                  ( -0.8660254 -0.5000000  0.0000000 )
                  (  0.0000000  0.0000000 -1.0000000 )


      isym = 10     inv.  60 deg rotation - cryst. axis [0,0,-1] 

 cryst.   s(10) = (     0          1          0      )
                  (    -1         -1          0      )
                  (     0          0         -1      )

 cart.    s(10) = ( -0.5000000 -0.8660254  0.0000000 )
                  (  0.8660254 -0.5000000  0.0000000 )
                  (  0.0000000  0.0000000 -1.0000000 )


      isym = 11     inv. 180 deg rotation - cryst. axis [0,1,0]  

 cryst.   s(11) = (     1          1          0      )
                  (     0         -1          0      )
                  (     0          0          1      )

 cart.    s(11) = (  0.5000000  0.8660254  0.0000000 )
                  (  0.8660254 -0.5000000  0.0000000 )
                  (  0.0000000  0.0000000  1.0000000 )


      isym = 12     inv. 180 deg rotation - cryst. axis [1,1,0]  

 cryst.   s(12) = (     0         -1          0      )
                  (    -1          0          0      )
                  (     0          0          1      )

 cart.    s(12) = (  0.5000000 -0.8660254  0.0000000 )
                  ( -0.8660254 -0.5000000  0.0000000 )
                  (  0.0000000  0.0000000  1.0000000 )


     point group D_3h (-62m)
     there are  6 classes
     the character table:

       E     2C3   3C2   s_h   2S3   3s_v 
A'_1   1.00  1.00  1.00  1.00  1.00  1.00
A'_2   1.00  1.00 -1.00  1.00  1.00 -1.00
E'     2.00 -1.00  0.00  2.00 -1.00  0.00
A''1   1.00  1.00  1.00 -1.00 -1.00 -1.00
A''2   1.00  1.00 -1.00 -1.00 -1.00  1.00
E''    2.00 -1.00  0.00 -2.00  1.00  0.00

     the symmetry operations in each class and the name of the first element:

     E        1
          identity                                               
     2C3      3    4
          120 deg rotation - cryst. axis [0,0,1]                 
     3C2      2    6    5
          180 deg rotation - cart. axis [0,1,0]                  
     s_h      7
          inv. 180 deg rotation - cart. axis [0,0,1]             
     2S3      9   10
          inv.  60 deg rotation - cryst. axis [0,0,1]            
     3s_v     8   11   12
          inv. 180 deg rotation - cart. axis [1,0,0]             

   Cartesian axes

     site n.     atom                  positions (alat units)
         1           B   tau(   1) = (   0.0000000   0.0000000   0.0000000  )
         2           N   tau(   2) = (  -0.0000000   0.5773503   0.0000000  )

   Crystallographic axes

     site n.     atom                  positions (cryst. coord.)
         1           B   tau(   1) = (  0.0000000  0.0000000  0.0000000  )
         2           N   tau(   2) = (  0.3333333  0.6666667  0.0000000  )

     number of k points=    30  Marzari-Vanderbilt smearing, width (Ry)=  0.0050
                       cart. coord. in units 2pi/alat
        k(    1) = (   0.0000000   0.0000000   0.0000000), wk =   0.0078125
        k(    2) = (   0.0000000   0.0721688   0.0000000), wk =   0.0468750
        k(    3) = (   0.0000000   0.1443376   0.0000000), wk =   0.0468750
        k(    4) = (   0.0000000   0.2165064   0.0000000), wk =   0.0468750
        k(    5) = (   0.0000000   0.2886751   0.0000000), wk =   0.0468750
        k(    6) = (   0.0000000   0.3608439   0.0000000), wk =   0.0468750
        k(    7) = (   0.0000000   0.4330127   0.0000000), wk =   0.0468750
        k(    8) = (   0.0000000   0.5051815   0.0000000), wk =   0.0468750
        k(    9) = (   0.0000000  -0.5773503   0.0000000), wk =   0.0234375
        k(   10) = (   0.0625000   0.1082532   0.0000000), wk =   0.0468750
        k(   11) = (   0.0625000   0.1804220   0.0000000), wk =   0.0937500
        k(   12) = (   0.0625000   0.2525907   0.0000000), wk =   0.0937500
        k(   13) = (   0.0625000   0.3247595   0.0000000), wk =   0.0937500
        k(   14) = (   0.0625000   0.3969283   0.0000000), wk =   0.0937500
        k(   15) = (   0.0625000   0.4690971   0.0000000), wk =   0.0937500
        k(   16) = (   0.0625000   0.5412659   0.0000000), wk =   0.0937500
        k(   17) = (   0.1250000   0.2165064   0.0000000), wk =   0.0468750
        k(   18) = (   0.1250000   0.2886751   0.0000000), wk =   0.0937500
        k(   19) = (   0.1250000   0.3608439   0.0000000), wk =   0.0937500
        k(   20) = (   0.1250000   0.4330127   0.0000000), wk =   0.0937500
        k(   21) = (   0.1250000   0.5051815   0.0000000), wk =   0.0937500
        k(   22) = (   0.1250000   0.5773503   0.0000000), wk =   0.0468750
        k(   23) = (   0.1875000   0.3247595   0.0000000), wk =   0.0468750
        k(   24) = (   0.1875000   0.3969283   0.0000000), wk =   0.0937500
        k(   25) = (   0.1875000   0.4690971   0.0000000), wk =   0.0937500
        k(   26) = (   0.1875000   0.5412659   0.0000000), wk =   0.0937500
        k(   27) = (   0.2500000   0.4330127   0.0000000), wk =   0.0468750
        k(   28) = (   0.2500000   0.5051815   0.0000000), wk =   0.0937500
        k(   29) = (   0.2500000   0.5773503   0.0000000), wk =   0.0468750
        k(   30) = (   0.3125000   0.5412659   0.0000000), wk =   0.0468750

                       cryst. coord.
        k(    1) = (   0.0000000   0.0000000   0.0000000), wk =   0.0078125
        k(    2) = (   0.0000000   0.0625000   0.0000000), wk =   0.0468750
        k(    3) = (   0.0000000   0.1250000   0.0000000), wk =   0.0468750
        k(    4) = (   0.0000000   0.1875000   0.0000000), wk =   0.0468750
        k(    5) = (   0.0000000   0.2500000   0.0000000), wk =   0.0468750
        k(    6) = (   0.0000000   0.3125000   0.0000000), wk =   0.0468750
        k(    7) = (   0.0000000   0.3750000   0.0000000), wk =   0.0468750
        k(    8) = (   0.0000000   0.4375000   0.0000000), wk =   0.0468750
        k(    9) = (   0.0000000  -0.5000000   0.0000000), wk =   0.0234375
        k(   10) = (   0.0625000   0.0625000   0.0000000), wk =   0.0468750
        k(   11) = (   0.0625000   0.1250000   0.0000000), wk =   0.0937500
        k(   12) = (   0.0625000   0.1875000   0.0000000), wk =   0.0937500
        k(   13) = (   0.0625000   0.2500000   0.0000000), wk =   0.0937500
        k(   14) = (   0.0625000   0.3125000   0.0000000), wk =   0.0937500
        k(   15) = (   0.0625000   0.3750000   0.0000000), wk =   0.0937500
        k(   16) = (   0.0625000   0.4375000   0.0000000), wk =   0.0937500
        k(   17) = (   0.1250000   0.1250000   0.0000000), wk =   0.0468750
        k(   18) = (   0.1250000   0.1875000   0.0000000), wk =   0.0937500
        k(   19) = (   0.1250000   0.2500000   0.0000000), wk =   0.0937500
        k(   20) = (   0.1250000   0.3125000   0.0000000), wk =   0.0937500
        k(   21) = (   0.1250000   0.3750000   0.0000000), wk =   0.0937500
        k(   22) = (   0.1250000   0.4375000   0.0000000), wk =   0.0468750
        k(   23) = (   0.1875000   0.1875000   0.0000000), wk =   0.0468750
        k(   24) = (   0.1875000   0.2500000   0.0000000), wk =   0.0937500
        k(   25) = (   0.1875000   0.3125000   0.0000000), wk =   0.0937500
        k(   26) = (   0.1875000   0.3750000   0.0000000), wk =   0.0937500
        k(   27) = (   0.2500000   0.2500000   0.0000000), wk =   0.0468750
        k(   28) = (   0.2500000   0.3125000   0.0000000), wk =   0.0937500
        k(   29) = (   0.2500000   0.3750000   0.0000000), wk =   0.0468750
        k(   30) = (   0.3125000   0.3125000   0.0000000), wk =   0.0468750

     Dense  grid:    34803 G-vectors     FFT dimensions: (  24,  24, 144)

     Dynamical RAM for                 wfc:       0.07 MB

     Dynamical RAM for     wfc (w. buffer):       2.06 MB

     Dynamical RAM for           str. fact:       0.13 MB

     Dynamical RAM for           local pot:       0.00 MB

     Dynamical RAM for          nlocal pot:       0.13 MB

     Dynamical RAM for                qrad:       0.71 MB

     Dynamical RAM for          rho,v,vnew:       0.44 MB

     Dynamical RAM for               rhoin:       0.15 MB

     Dynamical RAM for            rho*nmix:       1.06 MB

     Dynamical RAM for           G-vectors:       0.28 MB

     Dynamical RAM for          h,s,v(r/c):       0.01 MB

     Dynamical RAM for          <psi|beta>:       0.00 MB

     Dynamical RAM for                 psi:       0.13 MB

     Dynamical RAM for                hpsi:       0.13 MB

     Dynamical RAM for      wfcinit/wfcrot:       0.13 MB

     Estimated static dynamical RAM per process >       4.50 MB

     Estimated max dynamical RAM per process >       5.84 MB

     Estimated total dynamical RAM >      46.74 MB

     Initial potential from superposition of free atoms

     starting charge       7.9997, renormalised to       8.0000

     negative rho (up, down):  7.169E-05 0.000E+00


     %%%%%%%%%%%%%%%%%%%%%%%%%%%%%%%%%%%%%%%%%%%%%%%%%%%%%%%%%%%%%%%%%%%%%%%%
     %                                                                      %
     % You are using vdW-DF, which was implemented by the Thonhauser group. %
     % Please cite the following two papers that made this development      %
     % possible and the two reviews that describe the various versions:     %
     %                                                                      %
     %   T. Thonhauser et al., PRL 115, 136402 (2015).                      %
     %   T. Thonhauser et al., PRB 76, 125112 (2007).                       %
     %   K. Berland et al., Rep. Prog. Phys. 78, 066501 (2015).             %
     %   D.C. Langreth et al., J. Phys.: Condens. Matter 21, 084203 (2009). %
     %                                                                      %
     % If you are calculating stress with vdW-DF, please also cite:         %
     %                                                                      %
     %   R. Sabatini et al., J. Phys.: Condens. Matter 24, 424209 (2012).   %
     %                                                                      %
     %%%%%%%%%%%%%%%%%%%%%%%%%%%%%%%%%%%%%%%%%%%%%%%%%%%%%%%%%%%%%%%%%%%%%%%%

     %%%%%%%%%%%%%%%%%%%%%%%%%%%%%%%%%%%%%%%%%%%%%%%%%%%%%%%%%%%%%%%%%%%%%%%%
     %                                                                      %
     %  vdW-DF NEWS:                                                        %
     %                                                                      %
     %  * vdW-DF3 is now available. DOI: 10.1021/acs.jctc.0c00471           %
     %    use with input_dft = 'vdW-DF3-opt1' or 'vdW-DF3-opt2'             %
     %                                                                      %
     %  * Unscreened and range-separated hybrid vdW-DF-cx functionals       %
     %    DOI: 10.1063/1.4986522 and 10.1088/1361-648X/ac2ad2               %
     %    use with input_dft = 'vdW-DF-cx0'    and 'vdW-DF-ahcx'            %
     %  * Unscreened and range-separated hybrid vdW-DF2-b86r functionals    %
     %    DOI: 10.1063/1.4986522 and DOI: 10.1103/PhysRevX.12.041003        %
     %    use with input_dft = 'vdW-DF2-br0' and 'vdW-DF2-ahbr'             %
     %                                                                      %
     %%%%%%%%%%%%%%%%%%%%%%%%%%%%%%%%%%%%%%%%%%%%%%%%%%%%%%%%%%%%%%%%%%%%%%%%


     Carrying out vdW-DF run using the following parameters:
     Nqs    =  20  Npoints =  1024  r_max =  100.000
     q_mesh =  0.00001000  0.04494208  0.09755937  0.15916263
               0.23128650  0.31572767  0.41458969  0.53033537
               0.66584808  0.82450364  1.01025438  1.22772762
               1.48234092  1.78043706  2.12944203  2.53805004
               3.01644009  3.57652955  4.23227104  5.00000000


     -----------------------------------------------
     Non-local corr. energy    =       0.09631023 Ry
     -----------------------------------------------

     Starting wfcs are    8 randomized atomic wfcs

     total cpu time spent up to now is        8.8 secs

     Self-consistent Calculation

     iteration #  1     ecut=    60.00 Ry     beta= 0.70
     Davidson diagonalization with overlap

---- Real-time Memory Report at c_bands before calling an iterative solver
             0 MiB given to the printing process from OS
             0 MiB allocation reported by mallinfo(arena+hblkhd)
             0 MiB available memory on the node where the printing process lives
------------------
     c_bands:  1 eigenvalues not converged
     c_bands:  2 eigenvalues not converged
     c_bands:  2 eigenvalues not converged
     c_bands:  1 eigenvalues not converged
     c_bands:  1 eigenvalues not converged
     c_bands:  1 eigenvalues not converged
     c_bands:  2 eigenvalues not converged
     c_bands:  1 eigenvalues not converged
     c_bands:  1 eigenvalues not converged
     c_bands:  1 eigenvalues not converged
     c_bands:  2 eigenvalues not converged
     c_bands:  1 eigenvalues not converged
     c_bands:  1 eigenvalues not converged
     c_bands:  1 eigenvalues not converged
     c_bands:  1 eigenvalues not converged
     c_bands:  1 eigenvalues not converged
     c_bands:  1 eigenvalues not converged
     c_bands:  1 eigenvalues not converged
     c_bands:  1 eigenvalues not converged
     c_bands:  1 eigenvalues not converged
     c_bands:  1 eigenvalues not converged
     c_bands:  1 eigenvalues not converged
     ethr =  5.00E-06,  avg # of iterations = 19.6

     negative rho (up, down):  2.031E-05 0.000E+00


     -----------------------------------------------
     Non-local corr. energy    =       0.10924222 Ry
     -----------------------------------------------


     total cpu time spent up to now is       10.2 secs

     total energy              =     -26.71085430 Ry
     estimated scf accuracy    <       0.39587536 Ry

     iteration #  2     ecut=    60.00 Ry     beta= 0.70
     Davidson diagonalization with overlap

---- Real-time Memory Report at c_bands before calling an iterative solver
             0 MiB given to the printing process from OS
             0 MiB allocation reported by mallinfo(arena+hblkhd)
             0 MiB available memory on the node where the printing process lives
------------------
     ethr =  4.95E-03,  avg # of iterations =  5.7

     negative rho (up, down):  9.622E-06 0.000E+00


     -----------------------------------------------
     Non-local corr. energy    =       0.10620746 Ry
     -----------------------------------------------


     total cpu time spent up to now is       10.7 secs

     total energy              =     -26.80829059 Ry
     estimated scf accuracy    <       0.17661229 Ry

     iteration #  3     ecut=    60.00 Ry     beta= 0.70
     Davidson diagonalization with overlap

---- Real-time Memory Report at c_bands before calling an iterative solver
             0 MiB given to the printing process from OS
             0 MiB allocation reported by mallinfo(arena+hblkhd)
             0 MiB available memory on the node where the printing process lives
------------------
     ethr =  2.21E-03,  avg # of iterations =  2.7


     -----------------------------------------------
     Non-local corr. energy    =       0.10704484 Ry
     -----------------------------------------------


     total cpu time spent up to now is       11.1 secs

     total energy              =     -26.84106814 Ry
     estimated scf accuracy    <       0.00174018 Ry

     iteration #  4     ecut=    60.00 Ry     beta= 0.70
     Davidson diagonalization with overlap

---- Real-time Memory Report at c_bands before calling an iterative solver
             0 MiB given to the printing process from OS
             0 MiB allocation reported by mallinfo(arena+hblkhd)
             0 MiB available memory on the node where the printing process lives
------------------
     ethr =  2.18E-05,  avg # of iterations =  8.3

     negative rho (up, down):  7.363E-08 0.000E+00


     -----------------------------------------------
     Non-local corr. energy    =       0.10701714 Ry
     -----------------------------------------------


     total cpu time spent up to now is       11.8 secs

     total energy              =     -26.84250543 Ry
     estimated scf accuracy    <       0.00132640 Ry

     iteration #  5     ecut=    60.00 Ry     beta= 0.70
     Davidson diagonalization with overlap

---- Real-time Memory Report at c_bands before calling an iterative solver
             0 MiB given to the printing process from OS
             0 MiB allocation reported by mallinfo(arena+hblkhd)
             0 MiB available memory on the node where the printing process lives
------------------
     ethr =  1.66E-05,  avg # of iterations =  1.9


     -----------------------------------------------
     Non-local corr. energy    =       0.10705351 Ry
     -----------------------------------------------


     total cpu time spent up to now is       12.1 secs

     total energy              =     -26.84271851 Ry
     estimated scf accuracy    <       0.00001593 Ry

     iteration #  6     ecut=    60.00 Ry     beta= 0.70
     Davidson diagonalization with overlap

---- Real-time Memory Report at c_bands before calling an iterative solver
             0 MiB given to the printing process from OS
             0 MiB allocation reported by mallinfo(arena+hblkhd)
             0 MiB available memory on the node where the printing process lives
------------------
     ethr =  1.99E-07,  avg # of iterations =  9.5


     -----------------------------------------------
     Non-local corr. energy    =       0.10705692 Ry
     -----------------------------------------------


     total cpu time spent up to now is       12.9 secs

     total energy              =     -26.84273397 Ry
     estimated scf accuracy    <       0.00002636 Ry

     iteration #  7     ecut=    60.00 Ry     beta= 0.70
     Davidson diagonalization with overlap

---- Real-time Memory Report at c_bands before calling an iterative solver
             0 MiB given to the printing process from OS
             0 MiB allocation reported by mallinfo(arena+hblkhd)
             0 MiB available memory on the node where the printing process lives
------------------
     ethr =  1.99E-07,  avg # of iterations =  1.9


     -----------------------------------------------
     Non-local corr. energy    =       0.10705923 Ry
     -----------------------------------------------


     total cpu time spent up to now is       13.2 secs

     total energy              =     -26.84273598 Ry
     estimated scf accuracy    <       0.00000147 Ry

     iteration #  8     ecut=    60.00 Ry     beta= 0.70
     Davidson diagonalization with overlap

---- Real-time Memory Report at c_bands before calling an iterative solver
             0 MiB given to the printing process from OS
             0 MiB allocation reported by mallinfo(arena+hblkhd)
             0 MiB available memory on the node where the printing process lives
------------------
     ethr =  1.84E-08,  avg # of iterations =  4.7


     -----------------------------------------------
     Non-local corr. energy    =       0.10705863 Ry
     -----------------------------------------------


     total cpu time spent up to now is       13.7 secs

     total energy              =     -26.84273669 Ry
     estimated scf accuracy    <       0.00000021 Ry

     iteration #  9     ecut=    60.00 Ry     beta= 0.70
     Davidson diagonalization with overlap

---- Real-time Memory Report at c_bands before calling an iterative solver
             0 MiB given to the printing process from OS
             0 MiB allocation reported by mallinfo(arena+hblkhd)
             0 MiB available memory on the node where the printing process lives
------------------
     ethr =  2.57E-09,  avg # of iterations =  3.9


     -----------------------------------------------
     Non-local corr. energy    =       0.10705985 Ry
     -----------------------------------------------


     total cpu time spent up to now is       14.2 secs

     End of self-consistent calculation

          k = 0.0000 0.0000 0.0000 (  4301 PWs)   bands (ev):

   -21.2177  -8.8411  -5.0165  -5.0165   0.7508   1.8471   2.5827   4.2889

     occupation numbers 
     1.0000   1.0000   1.0000   1.0000   0.0000   0.0000   0.0000   0.0000

          k = 0.0000 0.0722 0.0000 (  4331 PWs)   bands (ev):

   -21.1433  -8.7409  -5.3342  -5.1636   0.8804   1.9630   2.7078   4.4005

     occupation numbers 
     1.0000   1.0000   1.0000   1.0000   0.0000   0.0000   0.0000   0.0000

          k = 0.0000 0.1443 0.0000 (  4326 PWs)   bands (ev):

   -20.9219  -8.4413  -6.1897  -5.5529   1.2585   2.3077   3.0810   4.7262

     occupation numbers 
     1.0000   1.0000   1.0000   1.0000   0.0000   0.0000   0.0000   0.0000

          k = 0.0000 0.2165 0.0000 (  4336 PWs)   bands (ev):

   -20.5614  -7.9512  -7.3842  -6.0728   1.8686   2.8631   3.6982   5.2061

     occupation numbers 
     1.0000   1.0000   1.0000   1.0000   0.0000   0.0000   0.0000   0.0000

          k = 0.0000 0.2887 0.0000 (  4354 PWs)   bands (ev):

   -20.0775  -8.7262  -7.2880  -6.6144   2.6998   3.5361   4.5547   5.4426

     occupation numbers 
     1.0000   1.0000   1.0000   1.0000   0.0000   0.0000   0.0000   0.0000

          k = 0.0000 0.3608 0.0000 (  4382 PWs)   bands (ev):

   -19.5012 -10.0634  -7.0974  -6.4871   3.6306   3.7348   5.4267   5.6340

     occupation numbers 
     1.0000   1.0000   1.0000   1.0000   0.0000   0.0000   0.0000   0.0000

          k = 0.0000 0.4330 0.0000 (  4392 PWs)   bands (ev):

   -18.8953 -11.2560  -7.4711  -5.6224   2.6263   4.9055   6.4430   6.7016

     occupation numbers 
     1.0000   1.0000   1.0000   1.0000   0.0000   0.0000   0.0000   0.0000

          k = 0.0000 0.5052 0.0000 (  4374 PWs)   bands (ev):

   -18.3860 -12.1326  -7.7056  -4.8603   1.6136   5.8573   7.3540   7.8813

     occupation numbers 
     1.0000   1.0000   1.0000   1.0000   0.0000   0.0000   0.0000   0.0000

          k = 0.0000-0.5774 0.0000 (  4348 PWs)   bands (ev):

   -18.1745 -12.4683  -7.7850  -4.5283   1.1825   6.1062   8.5122   8.9997

     occupation numbers 
     1.0000   1.0000   1.0000   1.0000   0.0000   0.0000   0.0000   0.0000

          k = 0.0625 0.1083 0.0000 (  4329 PWs)   bands (ev):

   -20.9954  -8.5408  -5.8963  -5.4556   1.1344   2.1935   2.9571   4.6196

     occupation numbers 
     1.0000   1.0000   1.0000   1.0000   0.0000   0.0000   0.0000   0.0000

          k = 0.0625 0.1804 0.0000 (  4332 PWs)   bands (ev):

   -20.7042  -8.1458  -6.8737  -5.9582   1.6293   2.6450   3.4528   5.0292

     occupation numbers 
     1.0000   1.0000   1.0000   1.0000   0.0000   0.0000   0.0000   0.0000

          k = 0.0625 0.2526 0.0000 (  4336 PWs)   bands (ev):

   -20.2810  -8.1016  -7.5682  -6.5293   2.3529   3.2752   4.1914   5.4477

     occupation numbers 
     1.0000   1.0000   1.0000   1.0000   0.0000   0.0000   0.0000   0.0000

          k = 0.0625 0.3248 0.0000 (  4355 PWs)   bands (ev):

   -19.7483  -9.4162  -7.0685  -6.8329   3.2941   3.7845   5.1668   5.3358

     occupation numbers 
     1.0000   1.0000   1.0000   1.0000   0.0000   0.0000   0.0000   0.0000

          k = 0.0625 0.3969 0.0000 (  4377 PWs)   bands (ev):

   -19.1501 -10.6715  -7.5126  -5.9909   3.1665   4.4260   5.9230   6.3438

     occupation numbers 
     1.0000   1.0000   1.0000   1.0000   0.0000   0.0000   0.0000   0.0000

          k = 0.0625 0.4691 0.0000 (  4370 PWs)   bands (ev):

   -18.5758 -11.7134  -7.8251  -5.1519   2.0772   5.6239   7.2051   7.2099

     occupation numbers 
     1.0000   1.0000   1.0000   1.0000   0.0000   0.0000   0.0000   0.0000

          k = 0.0625 0.5413 0.0000 (  4368 PWs)   bands (ev):

   -18.1927 -12.3384  -7.9858  -4.5617   1.3083   6.3379   8.0670   8.7207

     occupation numbers 
     1.0000   1.0000   1.0000   1.0000   0.0000   0.0000   0.0000   0.0000

          k = 0.1250 0.2165 0.0000 (  4342 PWs)   bands (ev):

   -20.3499  -7.7997  -7.6628  -6.5979   2.2397   3.1783   4.0711   5.4151

     occupation numbers 
     1.0000   1.0000   1.0000   1.0000   0.0000   0.0000   0.0000   0.0000

          k = 0.1250 0.2887 0.0000 (  4365 PWs)   bands (ev):

   -19.8756  -8.9039  -7.2658  -7.0103   3.0796   3.7523   4.9324   5.4145

     occupation numbers 
     1.0000   1.0000   1.0000   1.0000   0.0000   0.0000   0.0000   0.0000

          k = 0.1250 0.3608 0.0000 (  4363 PWs)   bands (ev):

   -19.3128 -10.0769  -7.8319  -6.2239   3.5541   4.1362   5.6585   6.0301

     occupation numbers 
     1.0000   1.0000   1.0000   1.0000   0.0000   0.0000   0.0000   0.0000

          k = 0.1250 0.4330 0.0000 (  4369 PWs)   bands (ev):

   -18.7248 -11.1643  -8.2517  -5.3785   2.5629   5.3764   6.7471   7.3184

     occupation numbers 
     1.0000   1.0000   1.0000   1.0000   0.0000   0.0000   0.0000   0.0000

          k = 0.1250 0.5052 0.0000 (  4376 PWs)   bands (ev):

   -18.2351 -11.9772  -8.5082  -4.6389   1.6243   6.6356   8.1151   8.1417

     occupation numbers 
     1.0000   1.0000   1.0000   1.0000   0.0000   0.0000   0.0000   0.0000

          k = 0.1250 0.5774 0.0000 (  4358 PWs)   bands (ev):

   -18.0336 -12.2896  -8.5943  -4.3178   1.2249   7.1910   8.8347   9.2898

     occupation numbers 
     1.0000   1.0000   1.0000   1.0000   0.0000   0.0000   0.0000   0.0000

          k = 0.1875 0.3248 0.0000 (  4372 PWs)   bands (ev):

   -19.3685  -9.7692  -8.0609  -6.3037   3.6882   4.0376   5.5910   5.9175

     occupation numbers 
     1.0000   1.0000   1.0000   1.0000   0.0000   0.0000   0.0000   0.0000

          k = 0.1875 0.3969 0.0000 (  4387 PWs)   bands (ev):

   -18.8061 -10.6745  -8.7133  -5.5009   2.8851   5.2101   6.5187   7.1391

     occupation numbers 
     1.0000   1.0000   1.0000   1.0000   0.0000   0.0000   0.0000   0.0000

          k = 0.1875 0.4691 0.0000 (  4360 PWs)   bands (ev):

   -18.2759 -11.4916  -9.1435  -4.7114   1.9638   6.5580   7.7580   8.5473

     occupation numbers 
     1.0000   1.0000   1.0000   1.0000   0.0000   0.0000   0.0000   0.0000

          k = 0.1875 0.5413 0.0000 (  4357 PWs)   bands (ev):

   -17.9302 -12.0007  -9.3542  -4.1646   1.3247   7.8716   8.9180   9.1835

     occupation numbers 
     1.0000   1.0000   1.0000   1.0000   0.0000   0.0000   0.0000   0.0000

          k = 0.2500 0.4330 0.0000 (  4370 PWs)   bands (ev):

   -18.2924 -11.2009  -9.4942  -4.7403   2.1134   6.4897   7.6210   8.4813

     occupation numbers 
     1.0000   1.0000   1.0000   1.0000   0.0000   0.0000   0.0000   0.0000

          k = 0.2500 0.5052 0.0000 (  4368 PWs)   bands (ev):

   -17.8824 -11.6146 -10.0031  -4.0972   1.4564   7.9089   8.5641   9.9159

     occupation numbers 
     1.0000   1.0000   1.0000   1.0000   0.0000   0.0000   0.0000   0.0000

          k = 0.2500 0.5774 0.0000 (  4350 PWs)   bands (ev):

   -17.7199 -11.7833 -10.1728  -3.8269   1.1809   8.8113   8.9573   9.8537

     occupation numbers 
     1.0000   1.0000   1.0000   1.0000   0.0000   0.0000   0.0000   0.0000

          k = 0.3125 0.5413 0.0000 (  4374 PWs)   bands (ev):

   -17.6454 -11.5471 -10.6230  -3.7054   1.1441   8.6208   9.1893  10.4659

     occupation numbers 
     1.0000   1.0000   1.0000   1.0000   0.0000   0.0000   0.0000   0.0000

     the Fermi energy is    -1.2453 ev

!    total energy              =     -26.84273669 Ry
     estimated scf accuracy    <       0.00000003 Ry
     smearing contrib. (-TS)   =       0.00000000 Ry
     internal energy E=F+TS    =     -26.84273669 Ry

     The total energy is F=E-TS. E is the sum of the following terms:
     one-electron contribution =    -155.58580729 Ry
     hartree contribution      =      79.53088212 Ry
     xc contribution           =      -8.67904302 Ry
     ewald contribution        =      57.89123150 Ry

     convergence has been achieved in   9 iterations


     -----------------------------------------------
     Non-local corr. energy    =       0.10705985 Ry
     -----------------------------------------------


     Forces acting on atoms (cartesian axes, Ry/au):

     atom    1 type  2   force =     0.00000000    0.00000000    0.00000000
     atom    2 type  1   force =    -0.00000000   -0.00000000    0.00000000
     The non-local contrib.  to forces
     atom    1 type  2   force =     0.00000000   -0.00000000    0.00000000
     atom    2 type  1   force =     0.00000000    0.00000000    0.00000000
     The ionic contribution  to forces
     atom    1 type  2   force =    -0.00000001    0.00000000   -0.00000000
     atom    2 type  1   force =     0.00000001   -0.00000000   -0.00000000
     The local contribution  to forces
     atom    1 type  2   force =    -0.00000000   -0.00000000    0.00000000
     atom    2 type  1   force =     0.00000003   -0.00000002    0.00000000
     The core correction contribution to forces
     atom    1 type  2   force =    -0.00000000    0.00000000    0.00000000
     atom    2 type  1   force =    -0.00000000    0.00000000   -0.00000000
     The Hubbard contrib.    to forces
     atom    1 type  2   force =     0.00000000    0.00000000    0.00000000
     atom    2 type  1   force =     0.00000000    0.00000000    0.00000000
     The SCF correction term to forces
     atom    1 type  2   force =    -0.00000000    0.00000000   -0.00000000
     atom    2 type  1   force =    -0.00000000    0.00000000   -0.00000000

     Total force =     0.000000     Total SCF correction =     0.000000


     Computing stress (Cartesian axis) and pressure



     -----------------------------------------------
     Non-local corr. energy    =       0.10705985 Ry
     -----------------------------------------------

          total   stress  (Ry/bohr**3)                   (kbar)     P=      -10.06
  -0.00006755  -0.00000000  -0.00000000           -9.94       -0.00       -0.00
  -0.00000000  -0.00006755   0.00000000           -0.00       -9.94        0.00
  -0.00000000   0.00000000  -0.00007009           -0.00        0.00      -10.31

     kinetic stress (kbar)   3195.86      0.00     -0.00
                                0.00   3195.86      0.00
                               -0.00      0.00   3477.71

     local   stress (kbar) -43095.07      0.00     -0.00
                                0.00 -43095.07      0.00
                               -0.00      0.00  43537.74

     nonloc. stress (kbar)   -531.19     -0.00      0.00
                               -0.00   -531.19      0.00
                               -0.00      0.00   -513.07

     hartree stress (kbar)  20493.92      0.00     -0.00
                                0.00  20493.92      0.00
                               -0.00      0.00 -19939.21

     exc-cor stress (kbar)   -321.71     -0.00      0.00
                               -0.00   -321.71     -0.00
                                0.00     -0.00   -354.45

     corecor stress (kbar)   -359.17      0.00      0.00
                                0.00   -359.17     -0.00
                                0.00     -0.00   -351.33

     ewald   stress (kbar)  20604.73     -0.00     -0.00
                               -0.00  20604.73     -0.00
                               -0.00     -0.00 -25887.98

     hubbard stress (kbar)      0.00      0.00      0.00
                                0.00      0.00      0.00
                                0.00      0.00      0.00

     DFT-D   stress (kbar)      0.00      0.00      0.00
                                0.00      0.00      0.00
                                0.00      0.00      0.00

     XDM     stress (kbar)      0.00      0.00      0.00
                                0.00      0.00      0.00
                                0.00      0.00      0.00

     dft-nl  stress (kbar)      2.70      0.00      0.00
                                0.00      2.70      0.00
                                0.00      0.00     20.28

     TS-vdW  stress (kbar)      0.00      0.00      0.00
                                0.00      0.00      0.00
                                0.00      0.00      0.00

     MDB     stress (kbar)      0.00      0.00      0.00
                                0.00      0.00      0.00
                                0.00      0.00      0.00

     3D-RISM stress (kbar)      0.00      0.00      0.00
                                0.00      0.00      0.00
                                0.00      0.00      0.00


     Writing all to output data dir ./tmp/hBN_1l_PBE_vdW.save/

     init_run     :      8.63s CPU      8.69s WALL (       1 calls)
     electrons    :      4.84s CPU      5.38s WALL (       1 calls)
     forces       :      0.08s CPU      0.08s WALL (       1 calls)
     stress       :      0.27s CPU      0.29s WALL (       1 calls)

     Called by init_run:
     wfcinit      :      0.09s CPU      0.10s WALL (       1 calls)
     wfcinit:atom :      0.00s CPU      0.00s WALL (      30 calls)
     wfcinit:wfcr :      0.08s CPU      0.09s WALL (      30 calls)
     potinit      :      8.23s CPU      8.27s WALL (       1 calls)
     hinit0       :      0.29s CPU      0.29s WALL (       1 calls)

     Called by electrons:
     c_bands      :      4.24s CPU      4.72s WALL (       9 calls)
     sum_band     :      0.31s CPU      0.33s WALL (       9 calls)
     v_of_rho     :      8.49s CPU      8.55s WALL (      10 calls)
     v_h          :      0.00s CPU      0.00s WALL (      10 calls)
     v_xc         :      8.54s CPU      8.62s WALL (      12 calls)
     mix_rho      :      0.01s CPU      0.03s WALL (       9 calls)
     vdW_kernel   :      8.19s CPU      8.22s WALL (       1 calls)

     Called by c_bands:
     init_us_2    :      0.07s CPU      0.07s WALL (     630 calls)
     init_us_2:cp :      0.07s CPU      0.07s WALL (     630 calls)
     cegterg      :      4.15s CPU      4.61s WALL (     270 calls)

     Called by sum_band:
     sum_band:wei :      0.00s CPU      0.00s WALL (       9 calls)
     sum_band:loo :      0.30s CPU      0.32s WALL (       9 calls)
     sum_band:buf :      0.00s CPU      0.00s WALL (     270 calls)
     sum_band:ini :      0.03s CPU      0.03s WALL (     270 calls)

     Called by *egterg:
     cdiaghg      :      0.19s CPU      0.20s WALL (    2016 calls)
     cegterg:over :      0.29s CPU      0.30s WALL (    1746 calls)
     cegterg:upda :      0.26s CPU      0.38s WALL (    1746 calls)
     cegterg:last :      0.26s CPU      0.32s WALL (    1057 calls)
     h_psi        :      2.96s CPU      3.18s WALL (    2046 calls)
     g_psi        :      0.03s CPU      0.05s WALL (    1746 calls)

     Called by h_psi:
     h_psi:calbec :      0.14s CPU      0.15s WALL (    2046 calls)
     vloc_psi     :      2.61s CPU      2.71s WALL (    2046 calls)
     add_vuspsi   :      0.19s CPU      0.28s WALL (    2046 calls)

     General routines
     calbec       :      0.17s CPU      0.17s WALL (    2196 calls)
     fft          :      0.39s CPU      0.40s WALL (     768 calls)
     ffts         :      0.00s CPU      0.00s WALL (       9 calls)
     fftw         :      2.60s CPU      2.69s WALL (   21108 calls)

     Parallel routines

     PWSCF        :     13.93s CPU     14.62s WALL


   This run was terminated on:  14:26:22  16Apr2024            

=------------------------------------------------------------------------------=
   JOB DONE.
=------------------------------------------------------------------------------=
