
     Program PROJWFC v.7.2 starts on 16Apr2024 at 14:27:10 

     This program is part of the open-source Quantum ESPRESSO suite
     for quantum simulation of materials; please cite
         "P. Giannozzi et al., J. Phys.:Condens. Matter 21 395502 (2009);
         "P. Giannozzi et al., J. Phys.:Condens. Matter 29 465901 (2017);
         "P. Giannozzi et al., J. Chem. Phys. 152 154105 (2020);
          URL http://www.quantum-espresso.org", 
     in publications or presentations arising from this work. More details at
     http://www.quantum-espresso.org/quote

     Parallel version (MPI & OpenMP), running on       8 processor cores
     Number of MPI processes:                 8
     Threads/MPI process:                     1

     MPI processes distributed on     1 nodes
     R & G space division:  proc/nbgrp/npool/nimage =       8
     0 MiB available memory on the printing compute node when the environment starts


     Reading xml data from directory:

     ./tmp/hBN_1l_PBE_vdW.save/

     IMPORTANT: XC functional enforced from input :
     Exchange-correlation= VDW-DF2-B86R
                           (   1   4  26   0   2   0   0)
     Any further DFT definition will be discarded
     Please, verify this is what you really want


     Parallelization info
     --------------------
     sticks:   dense  smooth     PW     G-vecs:    dense   smooth      PW
     Min          45      45     15                 4333     4333     755
     Max          46      46     16                 4356     4356     767
     Sum         367     367    121                34803    34803    6103

     Using Slab Decomposition



     %%%%%%%%%%%%%%%%%%%%%%%%%%%%%%%%%%%%%%%%%%%%%%%%%%%%%%%%%%%%%%%%%%%%%%%%
     %                                                                      %
     % You are using vdW-DF, which was implemented by the Thonhauser group. %
     % Please cite the following two papers that made this development      %
     % possible and the two reviews that describe the various versions:     %
     %                                                                      %
     %   T. Thonhauser et al., PRL 115, 136402 (2015).                      %
     %   T. Thonhauser et al., PRB 76, 125112 (2007).                       %
     %   K. Berland et al., Rep. Prog. Phys. 78, 066501 (2015).             %
     %   D.C. Langreth et al., J. Phys.: Condens. Matter 21, 084203 (2009). %
     %                                                                      %
     % If you are calculating stress with vdW-DF, please also cite:         %
     %                                                                      %
     %   R. Sabatini et al., J. Phys.: Condens. Matter 24, 424209 (2012).   %
     %                                                                      %
     %%%%%%%%%%%%%%%%%%%%%%%%%%%%%%%%%%%%%%%%%%%%%%%%%%%%%%%%%%%%%%%%%%%%%%%%

     %%%%%%%%%%%%%%%%%%%%%%%%%%%%%%%%%%%%%%%%%%%%%%%%%%%%%%%%%%%%%%%%%%%%%%%%
     %                                                                      %
     %  vdW-DF NEWS:                                                        %
     %                                                                      %
     %  * vdW-DF3 is now available. DOI: 10.1021/acs.jctc.0c00471           %
     %    use with input_dft = 'vdW-DF3-opt1' or 'vdW-DF3-opt2'             %
     %                                                                      %
     %  * Unscreened and range-separated hybrid vdW-DF-cx functionals       %
     %    DOI: 10.1063/1.4986522 and 10.1088/1361-648X/ac2ad2               %
     %    use with input_dft = 'vdW-DF-cx0'    and 'vdW-DF-ahcx'            %
     %  * Unscreened and range-separated hybrid vdW-DF2-b86r functionals    %
     %    DOI: 10.1063/1.4986522 and DOI: 10.1103/PhysRevX.12.041003        %
     %    use with input_dft = 'vdW-DF2-br0' and 'vdW-DF2-ahbr'             %
     %                                                                      %
     %%%%%%%%%%%%%%%%%%%%%%%%%%%%%%%%%%%%%%%%%%%%%%%%%%%%%%%%%%%%%%%%%%%%%%%%



     Gaussian broadening (read from file): ngauss,degauss=  -1    0.005000


     Calling projwave .... 
     Subspace diagonalization in iterative solution of the eigenvalue problem:
     one sub-group per band group will be used
     ELPA distributed-memory algorithm (size of sub-group:  2*  2 procs)

     linear algebra parallelized on   4 procs

  Problem Sizes 
  natomwfc =            8
  nx       =            4
  nbnd     =           16
  nkstot   =          331
  npwx     =          562
  nkb      =           16


     Atomic states used for projection
     (read from pseudopotential files):

     state #   1: atom   1 (B  ), wfc  1 (l=0 m= 1)
     state #   2: atom   1 (B  ), wfc  2 (l=1 m= 1)
     state #   3: atom   1 (B  ), wfc  2 (l=1 m= 2)
     state #   4: atom   1 (B  ), wfc  2 (l=1 m= 3)
     state #   5: atom   2 (N  ), wfc  1 (l=0 m= 1)
     state #   6: atom   2 (N  ), wfc  2 (l=1 m= 1)
     state #   7: atom   2 (N  ), wfc  2 (l=1 m= 2)
     state #   8: atom   2 (N  ), wfc  2 (l=1 m= 3)

 k =   0.0000000000  0.0000000000  0.0000000000
==== e(   1) =   -21.21697 eV ==== 
     psi = 0.565*[#   5]+0.427*[#   1]
    |psi|^2 = 0.992
==== e(   2) =    -8.84063 eV ==== 
     psi = 0.558*[#   6]+0.406*[#   2]
    |psi|^2 = 0.964
==== e(   3) =    -5.01551 eV ==== 
     psi = 0.391*[#   7]+0.391*[#   8]+0.108*[#   3]+0.108*[#   4]
    |psi|^2 = 0.996
==== e(   4) =    -5.01551 eV ==== 
     psi = 0.391*[#   7]+0.391*[#   8]+0.108*[#   3]+0.108*[#   4]
    |psi|^2 = 0.996
==== e(   5) =     0.75083 eV ==== 
     psi = 0.171*[#   1]+0.086*[#   5]
    |psi|^2 = 0.257
==== e(   6) =     1.84715 eV ==== 
     psi = 0.204*[#   2]+0.052*[#   6]
    |psi|^2 = 0.256
==== e(   7) =     2.58265 eV ==== 
     psi = 0.026*[#   1]+0.014*[#   5]
    |psi|^2 = 0.040
==== e(   8) =     4.28896 eV ==== 
     psi = 0.097*[#   2]+0.036*[#   6]
    |psi|^2 = 0.133
==== e(   9) =     5.00844 eV ==== 
     psi = 0.090*[#   1]+0.058*[#   5]
    |psi|^2 = 0.147
==== e(  10) =     7.69148 eV ==== 
     psi = 0.159*[#   2]+0.132*[#   6]
    |psi|^2 = 0.291
==== e(  11) =     8.01159 eV ==== 
     psi = 0.376*[#   3]+0.376*[#   4]+0.100*[#   7]+0.100*[#   8]
    |psi|^2 = 0.951
==== e(  12) =     8.01159 eV ==== 
     psi = 0.376*[#   3]+0.376*[#   4]+0.100*[#   7]+0.100*[#   8]
    |psi|^2 = 0.951
==== e(  13) =     8.36133 eV ==== 
     psi = 0.170*[#   1]+0.142*[#   5]
    |psi|^2 = 0.312
==== e(  14) =    10.10198 eV ==== 
     psi = 0.198*[#   6]+0.128*[#   2]
    |psi|^2 = 0.326
==== e(  15) =    11.06491 eV ==== 
     psi = 0.119*[#   5]+0.107*[#   1]
    |psi|^2 = 0.225
==== e(  16) =    14.15276 eV ==== 
     psi = 0.019*[#   6]+0.003*[#   2]
    |psi|^2 = 0.022

 k =   0.0000000000  0.0192450090  0.0000000000
==== e(   1) =   -21.21186 eV ==== 
     psi = 0.564*[#   5]+0.425*[#   1]+0.001*[#   3]+0.001*[#   4]
    |psi|^2 = 0.992
==== e(   2) =    -8.83398 eV ==== 
     psi = 0.558*[#   6]+0.406*[#   2]
    |psi|^2 = 0.964
==== e(   3) =    -5.03961 eV ==== 
     psi = 0.390*[#   7]+0.390*[#   8]+0.107*[#   3]+0.107*[#   4]+0.001*[#   1]
          
    |psi|^2 = 0.996
==== e(   4) =    -5.02698 eV ==== 
     psi = 0.390*[#   7]+0.390*[#   8]+0.108*[#   3]+0.108*[#   4]
    |psi|^2 = 0.996
==== e(   5) =     0.76010 eV ==== 
     psi = 0.168*[#   1]+0.086*[#   5]+0.001*[#   3]+0.001*[#   4]
    |psi|^2 = 0.258
==== e(   6) =     1.85529 eV ==== 
     psi = 0.204*[#   2]+0.052*[#   6]
    |psi|^2 = 0.256
==== e(   7) =     2.59156 eV ==== 
     psi = 0.025*[#   1]+0.014*[#   5]
    |psi|^2 = 0.040
==== e(   8) =     4.29680 eV ==== 
     psi = 0.097*[#   2]+0.036*[#   6]
    |psi|^2 = 0.134
==== e(   9) =     5.01765 eV ==== 
     psi = 0.089*[#   1]+0.057*[#   5]
    |psi|^2 = 0.147
==== e(  10) =     7.69269 eV ==== 
     psi = 0.161*[#   2]+0.133*[#   6]
    |psi|^2 = 0.294
==== e(  11) =     8.00368 eV ==== 
     psi = 0.369*[#   3]+0.369*[#   4]+0.097*[#   7]+0.097*[#   8]+0.006*[#   5]
          
    |psi|^2 = 0.937
==== e(  12) =     8.03484 eV ==== 
     psi = 0.375*[#   3]+0.375*[#   4]+0.100*[#   7]+0.100*[#   8]
    |psi|^2 = 0.950
==== e(  13) =     8.37723 eV ==== 
     psi = 0.172*[#   1]+0.136*[#   5]+0.004*[#   3]+0.004*[#   4]+0.003*[#   7]
          +0.003*[#   8]
    |psi|^2 = 0.322
==== e(  14) =    10.09288 eV ==== 
     psi = 0.197*[#   6]+0.127*[#   2]
    |psi|^2 = 0.324
==== e(  15) =    11.07825 eV ==== 
     psi = 0.118*[#   5]+0.108*[#   1]
    |psi|^2 = 0.228
==== e(  16) =    14.15646 eV ==== 
     psi = 0.019*[#   6]+0.003*[#   2]
    |psi|^2 = 0.022

 k =   0.0000000000  0.0384900179  0.0000000000
==== e(   1) =   -21.19591 eV ==== 
     psi = 0.562*[#   5]+0.419*[#   1]+0.005*[#   3]+0.005*[#   4]
    |psi|^2 = 0.992
==== e(   2) =    -8.81247 eV ==== 
     psi = 0.559*[#   6]+0.406*[#   2]
    |psi|^2 = 0.964
==== e(   3) =    -5.10847 eV ==== 
     psi = 0.389*[#   7]+0.389*[#   8]+0.105*[#   3]+0.105*[#   4]+0.005*[#   1]
          +0.003*[#   5]
    |psi|^2 = 0.996
==== e(   4) =    -5.05861 eV ==== 
     psi = 0.389*[#   7]+0.389*[#   8]+0.109*[#   3]+0.109*[#   4]
    |psi|^2 = 0.996
==== e(   5) =     0.78794 eV ==== 
     psi = 0.162*[#   1]+0.087*[#   5]+0.005*[#   3]+0.005*[#   4]
    |psi|^2 = 0.260
==== e(   6) =     1.88010 eV ==== 
     psi = 0.203*[#   2]+0.052*[#   6]
    |psi|^2 = 0.255
==== e(   7) =     2.61830 eV ==== 
     psi = 0.025*[#   1]+0.014*[#   5]
    |psi|^2 = 0.040
==== e(   8) =     4.32073 eV ==== 
     psi = 0.098*[#   2]+0.037*[#   6]
    |psi|^2 = 0.134
==== e(   9) =     5.04537 eV ==== 
     psi = 0.088*[#   1]+0.057*[#   5]
    |psi|^2 = 0.147
==== e(  10) =     7.69770 eV ==== 
     psi = 0.164*[#   2]+0.137*[#   6]
    |psi|^2 = 0.301
==== e(  11) =     7.98421 eV ==== 
     psi = 0.352*[#   3]+0.352*[#   4]+0.089*[#   7]+0.089*[#   8]+0.020*[#   5]
          +0.001*[#   1]
    |psi|^2 = 0.905
==== e(  12) =     8.10656 eV ==== 
     psi = 0.374*[#   3]+0.374*[#   4]+0.101*[#   7]+0.101*[#   8]
    |psi|^2 = 0.950
==== e(  13) =     8.42376 eV ==== 
     psi = 0.176*[#   1]+0.124*[#   5]+0.014*[#   3]+0.014*[#   4]+0.008*[#   7]
          +0.008*[#   8]
    |psi|^2 = 0.343
==== e(  14) =    10.06873 eV ==== 
     psi = 0.193*[#   6]+0.124*[#   2]
    |psi|^2 = 0.317
==== e(  15) =    11.11864 eV ==== 
     psi = 0.117*[#   5]+0.113*[#   1]+0.002*[#   7]+0.002*[#   8]
    |psi|^2 = 0.235
==== e(  16) =    14.16842 eV ==== 
     psi = 0.018*[#   6]+0.003*[#   2]
    |psi|^2 = 0.021

 k =   0.0000000000  0.0577350269  0.0000000000
==== e(   1) =   -21.16941 eV ==== 
     psi = 0.559*[#   5]+0.410*[#   1]+0.010*[#   3]+0.010*[#   4]+0.002*[#   7]
          +0.002*[#   8]
    |psi|^2 = 0.992
==== e(   2) =    -8.77670 eV ==== 
     psi = 0.559*[#   6]+0.405*[#   2]
    |psi|^2 = 0.965
==== e(   3) =    -5.22140 eV ==== 
     psi = 0.387*[#   7]+0.387*[#   8]+0.102*[#   3]+0.102*[#   4]+0.011*[#   1]
          +0.006*[#   5]
    |psi|^2 = 0.996
==== e(   4) =    -5.11092 eV ==== 
     psi = 0.388*[#   7]+0.388*[#   8]+0.110*[#   3]+0.110*[#   4]
    |psi|^2 = 0.996
==== e(   5) =     0.83407 eV ==== 
     psi = 0.153*[#   1]+0.087*[#   5]+0.011*[#   3]+0.011*[#   4]
    |psi|^2 = 0.263
==== e(   6) =     1.92137 eV ==== 
     psi = 0.203*[#   2]+0.052*[#   6]
    |psi|^2 = 0.255
==== e(   7) =     2.66281 eV ==== 
     psi = 0.024*[#   1]+0.014*[#   5]+0.001*[#   3]+0.001*[#   4]
    |psi|^2 = 0.040
==== e(   8) =     4.36046 eV ==== 
     psi = 0.098*[#   2]+0.037*[#   6]
    |psi|^2 = 0.135
==== e(   9) =     5.09124 eV ==== 
     psi = 0.085*[#   1]+0.057*[#   5]+0.002*[#   3]+0.002*[#   4]
    |psi|^2 = 0.147
==== e(  10) =     7.70417 eV ==== 
     psi = 0.170*[#   2]+0.144*[#   6]
    |psi|^2 = 0.314
==== e(  11) =     7.95572 eV ==== 
     psi = 0.334*[#   3]+0.334*[#   4]+0.082*[#   7]+0.082*[#   8]+0.036*[#   5]
          +0.005*[#   1]
    |psi|^2 = 0.871
==== e(  12) =     8.22493 eV ==== 
     psi = 0.372*[#   3]+0.372*[#   4]+0.102*[#   7]+0.102*[#   8]
    |psi|^2 = 0.949
==== e(  13) =     8.49696 eV ==== 
     psi = 0.181*[#   1]+0.110*[#   5]+0.021*[#   3]+0.021*[#   4]+0.014*[#   7]
          +0.014*[#   8]
    |psi|^2 = 0.362
==== e(  14) =    10.03015 eV ==== 
     psi = 0.186*[#   6]+0.119*[#   2]
    |psi|^2 = 0.304
==== e(  15) =    11.18522 eV ==== 
     psi = 0.120*[#   1]+0.114*[#   5]+0.004*[#   7]+0.004*[#   8]+0.002*[#   3]
          +0.002*[#   4]
    |psi|^2 = 0.247
==== e(  16) =    14.18893 eV ==== 
     psi = 0.016*[#   6]+0.002*[#   2]
    |psi|^2 = 0.019

 k =   0.0000000000  0.0769800359  0.0000000000
==== e(   1) =   -21.13234 eV ==== 
     psi = 0.554*[#   5]+0.397*[#   1]+0.017*[#   3]+0.017*[#   4]+0.003*[#   7]
          +0.003*[#   8]
    |psi|^2 = 0.992
==== e(   2) =    -8.72654 eV ==== 
     psi = 0.560*[#   6]+0.405*[#   2]
    |psi|^2 = 0.965
==== e(   3) =    -5.37537 eV ==== 
     psi = 0.385*[#   7]+0.385*[#   8]+0.099*[#   3]+0.099*[#   4]+0.019*[#   1]
          +0.010*[#   5]
    |psi|^2 = 0.995
==== e(   4) =    -5.18212 eV ==== 
     psi = 0.386*[#   7]+0.386*[#   8]+0.113*[#   3]+0.113*[#   4]
    |psi|^2 = 0.997
==== e(   5) =     0.89817 eV ==== 
     psi = 0.141*[#   1]+0.088*[#   5]+0.019*[#   3]+0.019*[#   4]
    |psi|^2 = 0.267
==== e(   6) =     1.97908 eV ==== 
     psi = 0.202*[#   2]+0.052*[#   6]
    |psi|^2 = 0.254
==== e(   7) =     2.72502 eV ==== 
     psi = 0.022*[#   1]+0.014*[#   5]+0.002*[#   3]+0.002*[#   4]
    |psi|^2 = 0.040
==== e(   8) =     4.41586 eV ==== 
     psi = 0.099*[#   2]+0.038*[#   6]
    |psi|^2 = 0.137
==== e(   9) =     5.15481 eV ==== 
     psi = 0.083*[#   1]+0.057*[#   5]+0.003*[#   3]+0.003*[#   4]
    |psi|^2 = 0.146
==== e(  10) =     7.70955 eV ==== 
     psi = 0.179*[#   2]+0.154*[#   6]
    |psi|^2 = 0.332
==== e(  11) =     7.92165 eV ==== 
     psi = 0.315*[#   3]+0.315*[#   4]+0.074*[#   7]+0.074*[#   8]+0.051*[#   5]
          +0.012*[#   1]
    |psi|^2 = 0.840
==== e(  12) =     8.38845 eV ==== 
     psi = 0.370*[#   3]+0.370*[#   4]+0.104*[#   7]+0.104*[#   8]
    |psi|^2 = 0.948
==== e(  13) =     8.59389 eV ==== 
     psi = 0.184*[#   1]+0.098*[#   5]+0.026*[#   3]+0.026*[#   4]+0.019*[#   7]
          +0.019*[#   8]
    |psi|^2 = 0.371
==== e(  14) =     9.98062 eV ==== 
     psi = 0.175*[#   6]+0.110*[#   2]
    |psi|^2 = 0.285
==== e(  15) =    11.27708 eV ==== 
     psi = 0.130*[#   1]+0.111*[#   5]+0.007*[#   7]+0.007*[#   8]+0.003*[#   3]
          +0.003*[#   4]
    |psi|^2 = 0.262
==== e(  16) =    14.21896 eV ==== 
     psi = 0.015*[#   6]+0.002*[#   2]
    |psi|^2 = 0.017

 k =   0.0000000000  0.0962250449  0.0000000000
==== e(   1) =   -21.08495 eV ==== 
     psi = 0.550*[#   5]+0.382*[#   1]+0.025*[#   3]+0.025*[#   4]+0.005*[#   7]
          +0.005*[#   8]
    |psi|^2 = 0.992
==== e(   2) =    -8.66264 eV ==== 
     psi = 0.562*[#   6]+0.404*[#   2]
    |psi|^2 = 0.966
==== e(   3) =    -5.56765 eV ==== 
     psi = 0.382*[#   7]+0.382*[#   8]+0.094*[#   3]+0.094*[#   4]+0.027*[#   1]
          +0.015*[#   5]
    |psi|^2 = 0.995
==== e(   4) =    -5.27095 eV ==== 
     psi = 0.383*[#   7]+0.383*[#   8]+0.115*[#   3]+0.115*[#   4]
    |psi|^2 = 0.997
==== e(   5) =     0.97983 eV ==== 
     psi = 0.128*[#   1]+0.089*[#   5]+0.027*[#   3]+0.027*[#   4]
    |psi|^2 = 0.271
==== e(   6) =     2.05297 eV ==== 
     psi = 0.201*[#   2]+0.052*[#   6]
    |psi|^2 = 0.252
==== e(   7) =     2.80486 eV ==== 
     psi = 0.021*[#   1]+0.014*[#   5]+0.002*[#   3]+0.002*[#   4]
    |psi|^2 = 0.040
==== e(   8) =     4.48646 eV ==== 
     psi = 0.100*[#   2]+0.039*[#   6]
    |psi|^2 = 0.140
==== e(   9) =     5.23545 eV ==== 
     psi = 0.080*[#   1]+0.056*[#   5]+0.005*[#   3]+0.005*[#   4]
    |psi|^2 = 0.146
==== e(  10) =     7.70893 eV ==== 
     psi = 0.190*[#   2]+0.167*[#   6]
    |psi|^2 = 0.357
==== e(  11) =     7.88264 eV ==== 
     psi = 0.296*[#   3]+0.296*[#   4]+0.068*[#   7]+0.068*[#   8]+0.063*[#   5]
          +0.023*[#   1]
    |psi|^2 = 0.814
==== e(  12) =     8.59472 eV ==== 
     psi = 0.367*[#   3]+0.367*[#   4]+0.106*[#   7]+0.106*[#   8]
    |psi|^2 = 0.947
==== e(  13) =     8.71216 eV ==== 
     psi = 0.184*[#   1]+0.088*[#   5]+0.028*[#   3]+0.028*[#   4]+0.023*[#   7]
          +0.023*[#   8]
    |psi|^2 = 0.372
==== e(  14) =     9.92427 eV ==== 
     psi = 0.160*[#   6]+0.099*[#   2]
    |psi|^2 = 0.260
==== e(  15) =    11.39274 eV ==== 
     psi = 0.140*[#   1]+0.108*[#   5]+0.011*[#   7]+0.011*[#   8]+0.005*[#   3]
          +0.005*[#   4]
    |psi|^2 = 0.278
==== e(  16) =    14.25926 eV ==== 
     psi = 0.013*[#   6]+0.001*[#   2]
    |psi|^2 = 0.014

 k =   0.0000000000  0.1154700538  0.0000000000
==== e(   1) =   -21.02702 eV ==== 
     psi = 0.544*[#   5]+0.365*[#   1]+0.034*[#   3]+0.034*[#   4]+0.007*[#   7]
          +0.007*[#   8]
    |psi|^2 = 0.991
==== e(   2) =    -8.58426 eV ==== 
     psi = 0.564*[#   6]+0.404*[#   2]
    |psi|^2 = 0.968
==== e(   3) =    -5.79356 eV ==== 
     psi = 0.379*[#   7]+0.379*[#   8]+0.090*[#   3]+0.090*[#   4]+0.037*[#   1]
          +0.020*[#   5]
    |psi|^2 = 0.994
==== e(   4) =    -5.37380 eV ==== 
     psi = 0.380*[#   7]+0.380*[#   8]+0.118*[#   3]+0.118*[#   4]
    |psi|^2 = 0.997
==== e(   5) =     1.07873 eV ==== 
     psi = 0.115*[#   1]+0.089*[#   5]+0.035*[#   3]+0.035*[#   4]
    |psi|^2 = 0.276
==== e(   6) =     2.14308 eV ==== 
     psi = 0.199*[#   2]+0.052*[#   6]
    |psi|^2 = 0.251
==== e(   7) =     2.90225 eV ==== 
     psi = 0.020*[#   1]+0.014*[#   5]+0.003*[#   3]+0.003*[#   4]
    |psi|^2 = 0.040
==== e(   8) =     4.57202 eV ==== 
     psi = 0.102*[#   2]+0.041*[#   6]
    |psi|^2 = 0.143
==== e(   9) =     5.33257 eV ==== 
     psi = 0.077*[#   1]+0.056*[#   5]+0.006*[#   3]+0.006*[#   4]
    |psi|^2 = 0.147
==== e(  10) =     7.69790 eV ==== 
     psi = 0.203*[#   2]+0.183*[#   6]
    |psi|^2 = 0.386
==== e(  11) =     7.84110 eV ==== 
     psi = 0.279*[#   3]+0.279*[#   4]+0.073*[#   5]+0.062*[#   7]+0.062*[#   8]
          +0.037*[#   1]
    |psi|^2 = 0.792
==== e(  12) =     8.84228 eV ==== 
     psi = 0.364*[#   3]+0.364*[#   4]+0.109*[#   7]+0.109*[#   8]
    |psi|^2 = 0.945
==== e(  13) =     8.85061 eV ==== 
     psi = 0.181*[#   1]+0.080*[#   5]+0.029*[#   3]+0.029*[#   4]+0.025*[#   7]
          +0.025*[#   8]
    |psi|^2 = 0.368
==== e(  14) =     9.86905 eV ==== 
     psi = 0.142*[#   6]+0.086*[#   2]
    |psi|^2 = 0.228
==== e(  15) =    11.53108 eV ==== 
     psi = 0.152*[#   1]+0.104*[#   5]+0.014*[#   7]+0.014*[#   8]+0.006*[#   3]
          +0.006*[#   4]
    |psi|^2 = 0.296
==== e(  16) =    14.31100 eV ==== 
     psi = 0.010*[#   6]
    |psi|^2 = 0.011

 k =   0.0000000000  0.1347150628  0.0000000000
==== e(   1) =   -20.95904 eV ==== 
     psi = 0.539*[#   5]+0.347*[#   1]+0.044*[#   3]+0.044*[#   4]+0.009*[#   7]
          +0.009*[#   8]
    |psi|^2 = 0.991
==== e(   2) =    -8.49198 eV ==== 
     psi = 0.566*[#   6]+0.403*[#   2]
    |psi|^2 = 0.969
==== e(   3) =    -6.05060 eV ==== 
     psi = 0.375*[#   7]+0.375*[#   8]+0.086*[#   3]+0.086*[#   4]+0.046*[#   1]
          +0.026*[#   5]
    |psi|^2 = 0.994
==== e(   4) =    -5.49022 eV ==== 
     psi = 0.377*[#   7]+0.377*[#   8]+0.121*[#   3]+0.121*[#   4]
    |psi|^2 = 0.997
==== e(   5) =     1.19446 eV ==== 
     psi = 0.103*[#   1]+0.090*[#   5]+0.042*[#   3]+0.042*[#   4]
    |psi|^2 = 0.280
==== e(   6) =     2.24899 eV ==== 
     psi = 0.199*[#   2]+0.052*[#   6]
    |psi|^2 = 0.251
==== e(   7) =     3.01709 eV ==== 
     psi = 0.018*[#   1]+0.014*[#   5]+0.004*[#   3]+0.004*[#   4]
    |psi|^2 = 0.041
==== e(   8) =     4.67159 eV ==== 
     psi = 0.105*[#   2]+0.044*[#   6]
    |psi|^2 = 0.149
==== e(   9) =     5.44531 eV ==== 
     psi = 0.075*[#   1]+0.056*[#   5]+0.008*[#   3]+0.008*[#   4]+0.001*[#   7]
          +0.001*[#   8]
    |psi|^2 = 0.149
==== e(  10) =     7.66821 eV ==== 
     psi = 0.217*[#   2]+0.201*[#   6]
    |psi|^2 = 0.418
==== e(  11) =     7.79780 eV ==== 
     psi = 0.262*[#   3]+0.262*[#   4]+0.082*[#   5]+0.057*[#   7]+0.057*[#   8]
          +0.052*[#   1]
    |psi|^2 = 0.772
==== e(  12) =     9.00721 eV ==== 
     psi = 0.176*[#   1]+0.073*[#   5]+0.029*[#   3]+0.029*[#   4]+0.026*[#   7]
          +0.026*[#   8]
    |psi|^2 = 0.359
==== e(  13) =     9.12736 eV ==== 
     psi = 0.360*[#   3]+0.360*[#   4]+0.112*[#   7]+0.112*[#   8]
    |psi|^2 = 0.944
==== e(  14) =     9.82214 eV ==== 
     psi = 0.120*[#   6]+0.070*[#   2]
    |psi|^2 = 0.189
==== e(  15) =    11.68985 eV ==== 
     psi = 0.163*[#   1]+0.100*[#   5]+0.018*[#   7]+0.018*[#   8]+0.007*[#   3]
          +0.007*[#   4]
    |psi|^2 = 0.314
==== e(  16) =    14.37470 eV ==== 
     psi = 0.008*[#   6]
    |psi|^2 = 0.009

 k =   0.0000000000  0.1539600718  0.0000000000
==== e(   1) =   -20.88092 eV ==== 
     psi = 0.533*[#   5]+0.328*[#   1]+0.054*[#   3]+0.054*[#   4]+0.011*[#   7]
          +0.011*[#   8]
    |psi|^2 = 0.991
==== e(   2) =    -8.38613 eV ==== 
     psi = 0.569*[#   6]+0.401*[#   2]
    |psi|^2 = 0.971
==== e(   3) =    -6.33299 eV ==== 
     psi = 0.371*[#   7]+0.371*[#   8]+0.082*[#   3]+0.082*[#   4]+0.056*[#   1]
          +0.032*[#   5]
    |psi|^2 = 0.994
==== e(   4) =    -5.61631 eV ==== 
     psi = 0.374*[#   7]+0.374*[#   8]+0.124*[#   3]+0.124*[#   4]
    |psi|^2 = 0.997
==== e(   5) =     1.32679 eV ==== 
     psi = 0.093*[#   1]+0.091*[#   5]+0.049*[#   3]+0.049*[#   4]
    |psi|^2 = 0.283
==== e(   6) =     2.37037 eV ==== 
     psi = 0.198*[#   2]+0.053*[#   6]
    |psi|^2 = 0.251
==== e(   7) =     3.14932 eV ==== 
     psi = 0.017*[#   1]+0.014*[#   5]+0.005*[#   3]+0.005*[#   4]
    |psi|^2 = 0.041
==== e(   8) =     4.78408 eV ==== 
     psi = 0.109*[#   2]+0.047*[#   6]
    |psi|^2 = 0.157
==== e(   9) =     5.57280 eV ==== 
     psi = 0.073*[#   1]+0.056*[#   5]+0.010*[#   3]+0.010*[#   4]+0.001*[#   7]
          +0.001*[#   8]
    |psi|^2 = 0.152
==== e(  10) =     7.61350 eV ==== 
     psi = 0.231*[#   2]+0.218*[#   6]
    |psi|^2 = 0.449
==== e(  11) =     7.75476 eV ==== 
     psi = 0.246*[#   3]+0.246*[#   4]+0.089*[#   5]+0.068*[#   1]+0.053*[#   7]
          +0.053*[#   8]
    |psi|^2 = 0.754
==== e(  12) =     9.18091 eV ==== 
     psi = 0.168*[#   1]+0.067*[#   5]+0.028*[#   3]+0.028*[#   4]+0.027*[#   7]
          +0.027*[#   8]
    |psi|^2 = 0.347
==== e(  13) =     9.44759 eV ==== 
     psi = 0.356*[#   3]+0.356*[#   4]+0.114*[#   7]+0.114*[#   8]
    |psi|^2 = 0.942
==== e(  14) =     9.79379 eV ==== 
     psi = 0.096*[#   6]+0.053*[#   2]
    |psi|^2 = 0.149
==== e(  15) =    11.86737 eV ==== 
     psi = 0.173*[#   1]+0.096*[#   5]+0.022*[#   7]+0.022*[#   8]+0.008*[#   3]
          +0.008*[#   4]
    |psi|^2 = 0.331
==== e(  16) =    14.45060 eV ==== 
     psi = 0.006*[#   6]
    |psi|^2 = 0.007

 k =   0.0000000000  0.1732050808  0.0000000000
==== e(   1) =   -20.79300 eV ==== 
     psi = 0.528*[#   5]+0.309*[#   1]+0.064*[#   3]+0.064*[#   4]+0.013*[#   7]
          +0.013*[#   8]
    |psi|^2 = 0.991
==== e(   2) =    -8.26688 eV ==== 
     psi = 0.573*[#   6]+0.400*[#   2]
    |psi|^2 = 0.972
==== e(   3) =    -6.63756 eV ==== 
     psi = 0.367*[#   7]+0.367*[#   8]+0.078*[#   3]+0.078*[#   4]+0.065*[#   1]
          +0.038*[#   5]
    |psi|^2 = 0.993
==== e(   4) =    -5.75068 eV ==== 
     psi = 0.371*[#   7]+0.371*[#   8]+0.127*[#   3]+0.127*[#   4]
    |psi|^2 = 0.997
==== e(   5) =     1.47545 eV ==== 
     psi = 0.092*[#   5]+0.084*[#   1]+0.054*[#   3]+0.054*[#   4]
    |psi|^2 = 0.286
==== e(   6) =     2.50667 eV ==== 
     psi = 0.198*[#   2]+0.054*[#   6]
    |psi|^2 = 0.252
==== e(   7) =     3.29887 eV ==== 
     psi = 0.016*[#   1]+0.014*[#   5]+0.005*[#   3]+0.005*[#   4]
    |psi|^2 = 0.041
==== e(   8) =     4.90763 eV ==== 
     psi = 0.116*[#   2]+0.053*[#   6]
    |psi|^2 = 0.168
==== e(   9) =     5.71390 eV ==== 
     psi = 0.074*[#   1]+0.057*[#   5]+0.012*[#   3]+0.012*[#   4]+0.002*[#   7]
          +0.002*[#   8]
    |psi|^2 = 0.158
==== e(  10) =     7.52865 eV ==== 
     psi = 0.241*[#   2]+0.232*[#   6]
    |psi|^2 = 0.473
==== e(  11) =     7.71301 eV ==== 
     psi = 0.230*[#   3]+0.230*[#   4]+0.095*[#   5]+0.083*[#   1]+0.049*[#   7]
          +0.049*[#   8]
    |psi|^2 = 0.736
==== e(  12) =     9.37023 eV ==== 
     psi = 0.160*[#   1]+0.062*[#   5]+0.028*[#   7]+0.028*[#   8]+0.028*[#   3]
          +0.028*[#   4]
    |psi|^2 = 0.335
==== e(  13) =     9.79254 eV ==== 
     psi = 0.072*[#   6]+0.037*[#   2]
    |psi|^2 = 0.109
==== e(  14) =     9.79993 eV ==== 
     psi = 0.353*[#   3]+0.353*[#   4]+0.117*[#   7]+0.117*[#   8]
    |psi|^2 = 0.940
==== e(  15) =    12.06130 eV ==== 
     psi = 0.182*[#   1]+0.092*[#   5]+0.026*[#   7]+0.026*[#   8]+0.009*[#   3]
          +0.009*[#   4]
    |psi|^2 = 0.346
==== e(  16) =    14.53851 eV ==== 
     psi = 0.005*[#   6]
    |psi|^2 = 0.005

 k =   0.0000000000  0.1924500897  0.0000000000
==== e(   1) =   -20.69553 eV ==== 
     psi = 0.524*[#   5]+0.290*[#   1]+0.074*[#   3]+0.074*[#   4]+0.015*[#   7]
          +0.015*[#   8]
    |psi|^2 = 0.990
==== e(   2) =    -8.13431 eV ==== 
     psi = 0.577*[#   6]+0.397*[#   2]
    |psi|^2 = 0.974
==== e(   3) =    -6.96005 eV ==== 
     psi = 0.363*[#   7]+0.363*[#   8]+0.075*[#   3]+0.075*[#   4]+0.074*[#   1]
          +0.043*[#   5]
    |psi|^2 = 0.993
==== e(   4) =    -5.89113 eV ==== 
     psi = 0.368*[#   7]+0.368*[#   8]+0.131*[#   3]+0.131*[#   4]
    |psi|^2 = 0.997
==== e(   5) =     1.64023 eV ==== 
     psi = 0.092*[#   5]+0.077*[#   1]+0.058*[#   3]+0.058*[#   4]+0.001*[#   7]
          +0.001*[#   8]
    |psi|^2 = 0.288
==== e(   6) =     2.65716 eV ==== 
     psi = 0.200*[#   2]+0.055*[#   6]
    |psi|^2 = 0.255
==== e(   7) =     3.46564 eV ==== 
     psi = 0.015*[#   1]+0.014*[#   5]+0.005*[#   3]+0.005*[#   4]
    |psi|^2 = 0.041
==== e(   8) =     5.03924 eV ==== 
     psi = 0.126*[#   2]+0.061*[#   6]
    |psi|^2 = 0.186
==== e(   9) =     5.86700 eV ==== 
     psi = 0.076*[#   1]+0.059*[#   5]+0.014*[#   3]+0.014*[#   4]+0.002*[#   7]
          +0.002*[#   8]
    |psi|^2 = 0.167
==== e(  10) =     7.41331 eV ==== 
     psi = 0.244*[#   2]+0.239*[#   6]
    |psi|^2 = 0.483
==== e(  11) =     7.67515 eV ==== 
     psi = 0.215*[#   3]+0.215*[#   4]+0.098*[#   5]+0.097*[#   1]+0.045*[#   7]
          +0.045*[#   8]
    |psi|^2 = 0.716
==== e(  12) =     9.57405 eV ==== 
     psi = 0.152*[#   1]+0.058*[#   5]+0.028*[#   7]+0.028*[#   8]+0.028*[#   3]
          +0.028*[#   4]
    |psi|^2 = 0.322
==== e(  13) =     9.82437 eV ==== 
     psi = 0.052*[#   6]+0.024*[#   2]
    |psi|^2 = 0.076
==== e(  14) =    10.18120 eV ==== 
     psi = 0.349*[#   3]+0.349*[#   4]+0.120*[#   7]+0.120*[#   8]
    |psi|^2 = 0.938
==== e(  15) =    12.26903 eV ==== 
     psi = 0.190*[#   1]+0.088*[#   5]+0.030*[#   7]+0.030*[#   8]+0.011*[#   3]
          +0.011*[#   4]
    |psi|^2 = 0.359
==== e(  16) =    14.63766 eV ==== 
     psi = 0.004*[#   6]
    |psi|^2 = 0.004

 k =   0.0000000000  0.2116950987  0.0000000000
==== e(   1) =   -20.58874 eV ==== 
     psi = 0.519*[#   5]+0.271*[#   1]+0.083*[#   3]+0.083*[#   4]+0.016*[#   7]
          +0.016*[#   8]
    |psi|^2 = 0.990
==== e(   2) =    -7.98894 eV ==== 
     psi = 0.582*[#   6]+0.395*[#   2]
    |psi|^2 = 0.976
==== e(   3) =    -7.29729 eV ==== 
     psi = 0.359*[#   7]+0.359*[#   8]+0.083*[#   1]+0.072*[#   3]+0.072*[#   4]
          +0.049*[#   5]
    |psi|^2 = 0.993
==== e(   4) =    -6.03538 eV ==== 
     psi = 0.365*[#   7]+0.365*[#   8]+0.134*[#   3]+0.134*[#   4]
    |psi|^2 = 0.997
==== e(   5) =     1.82100 eV ==== 
     psi = 0.093*[#   5]+0.072*[#   1]+0.061*[#   3]+0.061*[#   4]+0.001*[#   7]
          +0.001*[#   8]
    |psi|^2 = 0.289
==== e(   6) =     2.82055 eV ==== 
     psi = 0.203*[#   2]+0.058*[#   6]
    |psi|^2 = 0.261
==== e(   7) =     3.64959 eV ==== 
     psi = 0.015*[#   1]+0.014*[#   5]+0.006*[#   3]+0.006*[#   4]
    |psi|^2 = 0.041
==== e(   8) =     5.17338 eV ==== 
     psi = 0.141*[#   2]+0.073*[#   6]
    |psi|^2 = 0.213
==== e(   9) =     6.02988 eV ==== 
     psi = 0.080*[#   1]+0.063*[#   5]+0.018*[#   3]+0.018*[#   4]+0.002*[#   7]
          +0.002*[#   8]
    |psi|^2 = 0.183
==== e(  10) =     7.27270 eV ==== 
     psi = 0.236*[#   2]+0.236*[#   6]
    |psi|^2 = 0.472
==== e(  11) =     7.64416 eV ==== 
     psi = 0.200*[#   3]+0.200*[#   4]+0.107*[#   1]+0.100*[#   5]+0.042*[#   7]
          +0.042*[#   8]
    |psi|^2 = 0.692
==== e(  12) =     9.79160 eV ==== 
     psi = 0.144*[#   1]+0.054*[#   5]+0.028*[#   7]+0.028*[#   8]+0.027*[#   3]
          +0.027*[#   4]
    |psi|^2 = 0.309
==== e(  13) =     9.89132 eV ==== 
     psi = 0.035*[#   6]+0.015*[#   2]
    |psi|^2 = 0.050
==== e(  14) =    10.58877 eV ==== 
     psi = 0.345*[#   3]+0.345*[#   4]+0.123*[#   7]+0.123*[#   8]
    |psi|^2 = 0.935
==== e(  15) =    12.48791 eV ==== 
     psi = 0.195*[#   1]+0.084*[#   5]+0.034*[#   7]+0.034*[#   8]+0.012*[#   3]
          +0.012*[#   4]
    |psi|^2 = 0.370
==== e(  16) =    14.74642 eV ==== 
     psi = 0.003*[#   6]
    |psi|^2 = 0.003

 k =   0.0000000000  0.2309401077  0.0000000000
==== e(   1) =   -20.47297 eV ==== 
     psi = 0.516*[#   5]+0.253*[#   1]+0.092*[#   3]+0.092*[#   4]+0.018*[#   7]
          +0.018*[#   8]
    |psi|^2 = 0.990
==== e(   2) =    -7.83098 eV ==== 
     psi = 0.588*[#   6]+0.391*[#   2]
    |psi|^2 = 0.978
==== e(   3) =    -7.64508 eV ==== 
     psi = 0.354*[#   7]+0.354*[#   8]+0.091*[#   1]+0.070*[#   3]+0.070*[#   4]
          +0.053*[#   5]
    |psi|^2 = 0.993
==== e(   4) =    -6.18130 eV ==== 
     psi = 0.362*[#   7]+0.362*[#   8]+0.137*[#   3]+0.137*[#   4]
    |psi|^2 = 0.997
==== e(   5) =     2.01756 eV ==== 
     psi = 0.093*[#   5]+0.068*[#   1]+0.063*[#   3]+0.063*[#   4]+0.002*[#   7]
          +0.002*[#   8]
    |psi|^2 = 0.290
==== e(   6) =     2.99496 eV ==== 
     psi = 0.210*[#   2]+0.063*[#   6]
    |psi|^2 = 0.273
==== e(   7) =     3.85061 eV ==== 
     psi = 0.015*[#   1]+0.014*[#   5]+0.006*[#   3]+0.006*[#   4]
    |psi|^2 = 0.041
==== e(   8) =     5.30053 eV ==== 
     psi = 0.164*[#   2]+0.092*[#   6]
    |psi|^2 = 0.255
==== e(   9) =     6.19894 eV ==== 
     psi = 0.089*[#   1]+0.069*[#   5]+0.023*[#   3]+0.023*[#   4]+0.003*[#   7]
          +0.003*[#   8]
    |psi|^2 = 0.209
==== e(  10) =     7.12181 eV ==== 
     psi = 0.218*[#   6]+0.214*[#   2]
    |psi|^2 = 0.432
==== e(  11) =     7.62472 eV ==== 
     psi = 0.184*[#   3]+0.184*[#   4]+0.113*[#   1]+0.099*[#   5]+0.039*[#   7]
          +0.039*[#   8]
    |psi|^2 = 0.659
==== e(  12) =     9.99266 eV ==== 
     psi = 0.023*[#   6]+0.008*[#   2]
    |psi|^2 = 0.032
==== e(  13) =    10.02194 eV ==== 
     psi = 0.136*[#   1]+0.050*[#   5]+0.028*[#   7]+0.028*[#   8]+0.027*[#   3]
          +0.027*[#   4]
    |psi|^2 = 0.297
==== e(  14) =    11.02006 eV ==== 
     psi = 0.341*[#   3]+0.341*[#   4]+0.126*[#   7]+0.126*[#   8]
    |psi|^2 = 0.933
==== e(  15) =    12.71439 eV ==== 
     psi = 0.198*[#   1]+0.079*[#   5]+0.037*[#   7]+0.037*[#   8]+0.013*[#   3]
          +0.013*[#   4]
    |psi|^2 = 0.378
==== e(  16) =    14.86214 eV ==== 
     psi = 0.002*[#   6]
    |psi|^2 = 0.003

 k =   0.0000000000  0.2501851166  0.0000000000
==== e(   1) =   -20.34875 eV ==== 
     psi = 0.513*[#   5]+0.236*[#   1]+0.101*[#   3]+0.101*[#   4]+0.020*[#   7]
          +0.020*[#   8]
    |psi|^2 = 0.990
==== e(   2) =    -8.00143 eV ==== 
     psi = 0.351*[#   7]+0.351*[#   8]+0.099*[#   1]+0.067*[#   3]+0.067*[#   4]
          +0.058*[#   5]
    |psi|^2 = 0.993
==== e(   3) =    -7.66114 eV ==== 
     psi = 0.594*[#   6]+0.387*[#   2]
    |psi|^2 = 0.981
==== e(   4) =    -6.32754 eV ==== 
     psi = 0.359*[#   7]+0.359*[#   8]+0.140*[#   3]+0.140*[#   4]
    |psi|^2 = 0.997
==== e(   5) =     2.22970 eV ==== 
     psi = 0.093*[#   5]+0.066*[#   1]+0.064*[#   3]+0.064*[#   4]+0.002*[#   7]
          +0.002*[#   8]
    |psi|^2 = 0.290
==== e(   6) =     3.17705 eV ==== 
     psi = 0.222*[#   2]+0.070*[#   6]
    |psi|^2 = 0.292
==== e(   7) =     4.06859 eV ==== 
     psi = 0.015*[#   1]+0.014*[#   5]+0.006*[#   3]+0.006*[#   4]
    |psi|^2 = 0.042
==== e(   8) =     5.40354 eV ==== 
     psi = 0.198*[#   2]+0.120*[#   6]
    |psi|^2 = 0.318
==== e(   9) =     6.36825 eV ==== 
     psi = 0.103*[#   1]+0.078*[#   5]+0.030*[#   3]+0.030*[#   4]+0.004*[#   7]
          +0.004*[#   8]
    |psi|^2 = 0.249
==== e(  10) =     6.98566 eV ==== 
     psi = 0.183*[#   6]+0.174*[#   2]
    |psi|^2 = 0.358
==== e(  11) =     7.62267 eV ==== 
     psi = 0.167*[#   3]+0.167*[#   4]+0.112*[#   1]+0.094*[#   5]+0.036*[#   7]
          +0.036*[#   8]
    |psi|^2 = 0.611
==== e(  12) =    10.12553 eV ==== 
     psi = 0.015*[#   6]+0.005*[#   2]
    |psi|^2 = 0.020
==== e(  13) =    10.26417 eV ==== 
     psi = 0.129*[#   1]+0.047*[#   5]+0.028*[#   7]+0.028*[#   8]+0.027*[#   3]
          +0.027*[#   4]
    |psi|^2 = 0.287
==== e(  14) =    11.47045 eV ==== 
     psi = 0.338*[#   3]+0.338*[#   4]+0.128*[#   7]+0.128*[#   8]
    |psi|^2 = 0.931
==== e(  15) =    12.94408 eV ==== 
     psi = 0.199*[#   1]+0.074*[#   5]+0.040*[#   7]+0.040*[#   8]+0.015*[#   3]
          +0.015*[#   4]
    |psi|^2 = 0.382
==== e(  16) =    14.98035 eV ==== 
     psi = 0.002*[#   6]+0.001*[#   2]
    |psi|^2 = 0.003

 k =   0.0000000000  0.2694301256  0.0000000000
==== e(   1) =   -20.21634 eV ==== 
     psi = 0.512*[#   5]+0.219*[#   1]+0.108*[#   3]+0.108*[#   4]+0.021*[#   7]
          +0.021*[#   8]
    |psi|^2 = 0.989
==== e(   2) =    -8.36213 eV ==== 
     psi = 0.347*[#   7]+0.347*[#   8]+0.107*[#   1]+0.065*[#   3]+0.065*[#   4]
          +0.061*[#   5]
    |psi|^2 = 0.993
==== e(   3) =    -7.47965 eV ==== 
     psi = 0.602*[#   6]+0.381*[#   2]
    |psi|^2 = 0.983
==== e(   4) =    -6.47193 eV ==== 
     psi = 0.356*[#   7]+0.356*[#   8]+0.143*[#   3]+0.143*[#   4]
    |psi|^2 = 0.997
==== e(   5) =     2.45727 eV ==== 
     psi = 0.092*[#   5]+0.065*[#   1]+0.064*[#   3]+0.064*[#   4]+0.002*[#   7]
          +0.002*[#   8]
    |psi|^2 = 0.290
==== e(   6) =     3.36121 eV ==== 
     psi = 0.243*[#   2]+0.082*[#   6]
    |psi|^2 = 0.326
==== e(   7) =     4.30338 eV ==== 
     psi = 0.015*[#   1]+0.014*[#   5]+0.006*[#   3]+0.006*[#   4]
    |psi|^2 = 0.043
==== e(   8) =     5.45761 eV ==== 
     psi = 0.237*[#   2]+0.156*[#   6]
    |psi|^2 = 0.393
==== e(   9) =     6.52881 eV ==== 
     psi = 0.124*[#   1]+0.092*[#   5]+0.042*[#   3]+0.042*[#   4]+0.006*[#   7]
          +0.006*[#   8]
    |psi|^2 = 0.312
==== e(  10) =     6.90162 eV ==== 
     psi = 0.132*[#   6]+0.119*[#   2]
    |psi|^2 = 0.252
==== e(  11) =     7.64854 eV ==== 
     psi = 0.146*[#   3]+0.146*[#   4]+0.102*[#   1]+0.084*[#   5]+0.032*[#   7]
          +0.032*[#   8]
    |psi|^2 = 0.541
==== e(  12) =    10.28657 eV ==== 
     psi = 0.010*[#   6]+0.003*[#   2]
    |psi|^2 = 0.013
==== e(  13) =    10.51801 eV ==== 
     psi = 0.124*[#   1]+0.044*[#   5]+0.029*[#   7]+0.029*[#   8]+0.027*[#   3]
          +0.027*[#   4]
    |psi|^2 = 0.278
==== e(  14) =    11.93815 eV ==== 
     psi = 0.334*[#   3]+0.334*[#   4]+0.131*[#   7]+0.131*[#   8]
    |psi|^2 = 0.929
==== e(  15) =    13.17243 eV ==== 
     psi = 0.198*[#   1]+0.069*[#   5]+0.042*[#   7]+0.042*[#   8]+0.016*[#   3]
          +0.016*[#   4]
    |psi|^2 = 0.383
==== e(  16) =    15.09443 eV ==== 
     psi = 0.002*[#   2]+0.002*[#   6]
    |psi|^2 = 0.004

 k =   0.0000000000  0.2886751346  0.0000000000
==== e(   1) =   -20.07673 eV ==== 
     psi = 0.511*[#   5]+0.203*[#   1]+0.116*[#   3]+0.116*[#   4]+0.022*[#   7]
          +0.022*[#   8]
    |psi|^2 = 0.989
==== e(   2) =    -8.72546 eV ==== 
     psi = 0.343*[#   7]+0.343*[#   8]+0.115*[#   1]+0.064*[#   5]+0.063*[#   3]
          +0.063*[#   4]
    |psi|^2 = 0.992
==== e(   3) =    -7.28746 eV ==== 
     psi = 0.611*[#   6]+0.375*[#   2]
    |psi|^2 = 0.985
==== e(   4) =    -6.61359 eV ==== 
     psi = 0.353*[#   7]+0.353*[#   8]+0.145*[#   3]+0.145*[#   4]
    |psi|^2 = 0.997
==== e(   5) =     2.69984 eV ==== 
     psi = 0.092*[#   5]+0.066*[#   1]+0.064*[#   3]+0.064*[#   4]+0.002*[#   7]
          +0.002*[#   8]
    |psi|^2 = 0.290
==== e(   6) =     3.53632 eV ==== 
     psi = 0.280*[#   2]+0.103*[#   6]
    |psi|^2 = 0.383
==== e(   7) =     4.55474 eV ==== 
     psi = 0.016*[#   1]+0.015*[#   5]+0.006*[#   3]+0.006*[#   4]
    |psi|^2 = 0.044
==== e(   8) =     5.44279 eV ==== 
     psi = 0.261*[#   2]+0.182*[#   6]
    |psi|^2 = 0.443
==== e(   9) =     6.66814 eV ==== 
     psi = 0.151*[#   1]+0.110*[#   5]+0.059*[#   3]+0.059*[#   4]+0.009*[#   7]
          +0.009*[#   8]
    |psi|^2 = 0.397
==== e(  10) =     6.90463 eV ==== 
     psi = 0.079*[#   6]+0.065*[#   2]
    |psi|^2 = 0.145
==== e(  11) =     7.71527 eV ==== 
     psi = 0.121*[#   3]+0.121*[#   4]+0.084*[#   1]+0.069*[#   5]+0.027*[#   7]
          +0.027*[#   8]
    |psi|^2 = 0.448
==== e(  12) =    10.47225 eV ==== 
     psi = 0.006*[#   6]+0.002*[#   2]
    |psi|^2 = 0.008
==== e(  13) =    10.78153 eV ==== 
     psi = 0.119*[#   1]+0.041*[#   5]+0.029*[#   7]+0.029*[#   8]+0.027*[#   3]
          +0.027*[#   4]
    |psi|^2 = 0.272
==== e(  14) =    12.41933 eV ==== 
     psi = 0.331*[#   3]+0.331*[#   4]+0.133*[#   7]+0.133*[#   8]
    |psi|^2 = 0.928
==== e(  15) =    13.39042 eV ==== 
     psi = 0.193*[#   1]+0.063*[#   5]+0.043*[#   7]+0.043*[#   8]+0.017*[#   3]
          +0.017*[#   4]
    |psi|^2 = 0.376
==== e(  16) =    15.19339 eV ==== 
     psi = 0.004*[#   2]+0.002*[#   6]
    |psi|^2 = 0.006

 k =   0.0000000000  0.3079201436  0.0000000000
==== e(   1) =   -19.93021 eV ==== 
     psi = 0.511*[#   5]+0.188*[#   1]+0.122*[#   3]+0.122*[#   4]+0.023*[#   7]
          +0.023*[#   8]
    |psi|^2 = 0.989
==== e(   2) =    -9.08826 eV ==== 
     psi = 0.340*[#   7]+0.340*[#   8]+0.123*[#   1]+0.065*[#   5]+0.062*[#   3]
          +0.062*[#   4]
    |psi|^2 = 0.992
==== e(   3) =    -7.08531 eV ==== 
     psi = 0.621*[#   6]+0.367*[#   2]
    |psi|^2 = 0.987
==== e(   4) =    -6.75064 eV ==== 
     psi = 0.351*[#   7]+0.351*[#   8]+0.148*[#   3]+0.148*[#   4]
    |psi|^2 = 0.997
==== e(   5) =     2.95717 eV ==== 
     psi = 0.092*[#   5]+0.068*[#   1]+0.063*[#   3]+0.063*[#   4]+0.002*[#   7]
          +0.002*[#   8]
    |psi|^2 = 0.290
==== e(   6) =     3.68157 eV ==== 
     psi = 0.341*[#   2]+0.136*[#   6]
    |psi|^2 = 0.477
==== e(   7) =     4.82230 eV ==== 
     psi = 0.018*[#   1]+0.015*[#   5]+0.006*[#   3]+0.006*[#   4]
    |psi|^2 = 0.047
==== e(   8) =     5.37668 eV ==== 
     psi = 0.241*[#   2]+0.178*[#   6]
    |psi|^2 = 0.419
==== e(   9) =     6.77507 eV ==== 
     psi = 0.180*[#   1]+0.130*[#   5]+0.079*[#   3]+0.079*[#   4]+0.012*[#   7]
          +0.012*[#   8]
    |psi|^2 = 0.491
==== e(  10) =     7.00400 eV ==== 
     psi = 0.041*[#   6]+0.030*[#   2]
    |psi|^2 = 0.072
==== e(  11) =     7.83520 eV ==== 
     psi = 0.094*[#   3]+0.094*[#   4]+0.063*[#   1]+0.051*[#   5]+0.022*[#   7]
          +0.022*[#   8]
    |psi|^2 = 0.345
==== e(  12) =    10.67946 eV ==== 
     psi = 0.004*[#   6]+0.002*[#   2]
    |psi|^2 = 0.006
==== e(  13) =    11.05477 eV ==== 
     psi = 0.117*[#   1]+0.038*[#   5]+0.029*[#   7]+0.029*[#   8]+0.027*[#   3]
          +0.027*[#   4]
    |psi|^2 = 0.268
==== e(  14) =    12.91151 eV ==== 
     psi = 0.328*[#   3]+0.328*[#   4]+0.135*[#   7]+0.135*[#   8]
    |psi|^2 = 0.927
==== e(  15) =    13.58970 eV ==== 
     psi = 0.184*[#   1]+0.056*[#   5]+0.043*[#   7]+0.043*[#   8]+0.018*[#   3]
          +0.018*[#   4]
    |psi|^2 = 0.361
==== e(  16) =    15.25985 eV ==== 
     psi = 0.005*[#   2]+0.004*[#   6]
    |psi|^2 = 0.009

 k =   0.0000000000  0.3271651525  0.0000000000
==== e(   1) =   -19.77783 eV ==== 
     psi = 0.512*[#   5]+0.173*[#   1]+0.129*[#   3]+0.129*[#   4]+0.023*[#   7]
          +0.023*[#   8]
    |psi|^2 = 0.989
==== e(   2) =    -9.44759 eV ==== 
     psi = 0.338*[#   7]+0.338*[#   8]+0.130*[#   1]+0.066*[#   5]+0.060*[#   3]
          +0.060*[#   4]
    |psi|^2 = 0.992
==== e(   3) =    -6.88210 eV ==== 
     psi = 0.349*[#   7]+0.349*[#   8]+0.150*[#   3]+0.150*[#   4]
    |psi|^2 = 0.997
==== e(   4) =    -6.87390 eV ==== 
     psi = 0.632*[#   6]+0.357*[#   2]
    |psi|^2 = 0.989
==== e(   5) =     3.22861 eV ==== 
     psi = 0.091*[#   5]+0.072*[#   1]+0.061*[#   3]+0.061*[#   4]+0.003*[#   7]
          +0.003*[#   8]
    |psi|^2 = 0.292
==== e(   6) =     3.76042 eV ==== 
     psi = 0.430*[#   2]+0.186*[#   6]
    |psi|^2 = 0.616
==== e(   7) =     5.10541 eV ==== 
     psi = 0.020*[#   1]+0.017*[#   5]+0.007*[#   3]+0.007*[#   4]
    |psi|^2 = 0.051
==== e(   8) =     5.31930 eV ==== 
     psi = 0.177*[#   2]+0.138*[#   6]
    |psi|^2 = 0.315
==== e(   9) =     6.84768 eV ==== 
     psi = 0.202*[#   1]+0.146*[#   5]+0.095*[#   3]+0.095*[#   4]+0.014*[#   7]
          +0.014*[#   8]
    |psi|^2 = 0.567
==== e(  10) =     7.18033 eV ==== 
     psi = 0.021*[#   6]+0.014*[#   2]
    |psi|^2 = 0.034
==== e(  11) =     8.01181 eV ==== 
     psi = 0.070*[#   3]+0.070*[#   4]+0.044*[#   1]+0.036*[#   5]+0.018*[#   7]
          +0.018*[#   8]
    |psi|^2 = 0.255
==== e(  12) =    10.90524 eV ==== 
     psi = 0.003*[#   6]+0.002*[#   2]
    |psi|^2 = 0.005
==== e(  13) =    11.33509 eV ==== 
     psi = 0.116*[#   1]+0.036*[#   5]+0.030*[#   7]+0.030*[#   8]+0.028*[#   3]
          +0.028*[#   4]
    |psi|^2 = 0.268
==== e(  14) =    13.41117 eV ==== 
     psi = 0.326*[#   3]+0.326*[#   4]+0.137*[#   7]+0.137*[#   8]
    |psi|^2 = 0.926
==== e(  15) =    13.75388 eV ==== 
     psi = 0.169*[#   1]+0.048*[#   5]+0.040*[#   7]+0.040*[#   8]+0.018*[#   3]
          +0.018*[#   4]
    |psi|^2 = 0.333
==== e(  16) =    15.26783 eV ==== 
     psi = 0.008*[#   2]+0.006*[#   6]
    |psi|^2 = 0.014

 k =   0.0000000000  0.3464101615  0.0000000000
==== e(   1) =   -19.62062 eV ==== 
     psi = 0.514*[#   5]+0.159*[#   1]+0.135*[#   3]+0.135*[#   4]+0.023*[#   7]
          +0.023*[#   8]
    |psi|^2 = 0.989
==== e(   2) =    -9.80199 eV ==== 
     psi = 0.336*[#   7]+0.336*[#   8]+0.138*[#   1]+0.066*[#   5]+0.059*[#   3]
          +0.059*[#   4]
    |psi|^2 = 0.992
==== e(   3) =    -7.00723 eV ==== 
     psi = 0.347*[#   7]+0.347*[#   8]+0.152*[#   3]+0.152*[#   4]
    |psi|^2 = 0.997
==== e(   4) =    -6.65483 eV ==== 
     psi = 0.645*[#   6]+0.346*[#   2]
    |psi|^2 = 0.991
==== e(   5) =     3.51334 eV ==== 
     psi = 0.092*[#   5]+0.078*[#   1]+0.060*[#   3]+0.060*[#   4]+0.003*[#   7]
          +0.003*[#   8]
    |psi|^2 = 0.295
==== e(   6) =     3.73115 eV ==== 
     psi = 0.525*[#   2]+0.238*[#   6]
    |psi|^2 = 0.763
==== e(   7) =     5.34020 eV ==== 
     psi = 0.098*[#   2]+0.084*[#   6]
    |psi|^2 = 0.182
==== e(   8) =     5.40289 eV ==== 
     psi = 0.024*[#   1]+0.019*[#   5]+0.007*[#   3]+0.007*[#   4]
    |psi|^2 = 0.059
==== e(   9) =     6.89453 eV ==== 
     psi = 0.214*[#   1]+0.156*[#   5]+0.105*[#   3]+0.105*[#   4]+0.016*[#   7]
          +0.016*[#   8]
    |psi|^2 = 0.612
==== e(  10) =     7.41049 eV ==== 
     psi = 0.011*[#   6]+0.007*[#   2]
    |psi|^2 = 0.018
==== e(  11) =     8.23801 eV ==== 
     psi = 0.052*[#   3]+0.052*[#   4]+0.033*[#   1]+0.026*[#   5]+0.014*[#   7]
          +0.014*[#   8]
    |psi|^2 = 0.192
==== e(  12) =    11.14646 eV ==== 
     psi = 0.003*[#   2]+0.002*[#   6]
    |psi|^2 = 0.005
==== e(  13) =    11.61865 eV ==== 
     psi = 0.118*[#   1]+0.034*[#   5]+0.031*[#   7]+0.031*[#   8]+0.029*[#   3]
          +0.029*[#   4]
    |psi|^2 = 0.272
==== e(  14) =    13.86028 eV ==== 
     psi = 0.145*[#   1]+0.038*[#   5]+0.035*[#   7]+0.035*[#   8]+0.016*[#   3]
          +0.016*[#   4]
    |psi|^2 = 0.283
==== e(  15) =    13.91275 eV ==== 
     psi = 0.324*[#   3]+0.324*[#   4]+0.139*[#   7]+0.139*[#   8]
    |psi|^2 = 0.926
==== e(  16) =    15.18635 eV ==== 
     psi = 0.010*[#   2]+0.008*[#   6]
    |psi|^2 = 0.018

 k =   0.0000000000  0.3656551705  0.0000000000
==== e(   1) =   -19.45992 eV ==== 
     psi = 0.517*[#   5]+0.145*[#   1]+0.140*[#   3]+0.140*[#   4]+0.023*[#   7]
          +0.023*[#   8]
    |psi|^2 = 0.989
==== e(   2) =   -10.14827 eV ==== 
     psi = 0.334*[#   7]+0.334*[#   8]+0.146*[#   1]+0.065*[#   5]+0.057*[#   3]
          +0.057*[#   4]
    |psi|^2 = 0.992
==== e(   3) =    -7.12512 eV ==== 
     psi = 0.345*[#   7]+0.345*[#   8]+0.154*[#   3]+0.154*[#   4]
    |psi|^2 = 0.997
==== e(   4) =    -6.42951 eV ==== 
     psi = 0.659*[#   6]+0.334*[#   2]
    |psi|^2 = 0.993
==== e(   5) =     3.58514 eV ==== 
     psi = 0.592*[#   2]+0.270*[#   6]
    |psi|^2 = 0.862
==== e(   6) =     3.81008 eV ==== 
     psi = 0.093*[#   5]+0.086*[#   1]+0.058*[#   3]+0.058*[#   4]+0.003*[#   7]
          +0.003*[#   8]
    |psi|^2 = 0.302
==== e(   7) =     5.46809 eV ==== 
     psi = 0.045*[#   2]+0.043*[#   6]
    |psi|^2 = 0.087
==== e(   8) =     5.71230 eV ==== 
     psi = 0.031*[#   1]+0.023*[#   5]+0.009*[#   3]+0.009*[#   4]
    |psi|^2 = 0.074
==== e(   9) =     6.92963 eV ==== 
     psi = 0.215*[#   1]+0.158*[#   5]+0.108*[#   3]+0.108*[#   4]+0.016*[#   7]
          +0.016*[#   8]
    |psi|^2 = 0.623
==== e(  10) =     7.67877 eV ==== 
     psi = 0.006*[#   6]+0.004*[#   2]
    |psi|^2 = 0.010
==== e(  11) =     8.50371 eV ==== 
     psi = 0.040*[#   3]+0.040*[#   4]+0.027*[#   1]+0.020*[#   5]+0.012*[#   7]
          +0.012*[#   8]
    |psi|^2 = 0.151
==== e(  12) =    11.39945 eV ==== 
     psi = 0.004*[#   2]+0.002*[#   6]
    |psi|^2 = 0.006
==== e(  13) =    11.89773 eV ==== 
     psi = 0.124*[#   1]+0.033*[#   5]+0.033*[#   7]+0.033*[#   8]+0.030*[#   3]
          +0.030*[#   4]
    |psi|^2 = 0.282
==== e(  14) =    13.88138 eV ==== 
     psi = 0.108*[#   1]+0.026*[#   7]+0.026*[#   8]+0.025*[#   5]+0.012*[#   3]
          +0.012*[#   4]
    |psi|^2 = 0.208
==== e(  15) =    14.41287 eV ==== 
     psi = 0.322*[#   3]+0.322*[#   4]+0.141*[#   7]+0.141*[#   8]
    |psi|^2 = 0.927
==== e(  16) =    14.99657 eV ==== 
     psi = 0.012*[#   2]+0.010*[#   6]
    |psi|^2 = 0.022

 k =   0.0000000000  0.3849001795  0.0000000000
==== e(   1) =   -19.29716 eV ==== 
     psi = 0.521*[#   5]+0.146*[#   3]+0.146*[#   4]+0.132*[#   1]+0.022*[#   7]
          +0.022*[#   8]
    |psi|^2 = 0.989
==== e(   2) =   -10.48375 eV ==== 
     psi = 0.333*[#   7]+0.333*[#   8]+0.153*[#   1]+0.062*[#   5]+0.055*[#   3]
          +0.055*[#   4]
    |psi|^2 = 0.992
==== e(   3) =    -7.23497 eV ==== 
     psi = 0.343*[#   7]+0.343*[#   8]+0.156*[#   3]+0.156*[#   4]
    |psi|^2 = 0.997
==== e(   4) =    -6.19966 eV ==== 
     psi = 0.675*[#   6]+0.319*[#   2]
    |psi|^2 = 0.994
==== e(   5) =     3.35413 eV ==== 
     psi = 0.631*[#   2]+0.278*[#   6]
    |psi|^2 = 0.909
==== e(   6) =     4.11710 eV ==== 
     psi = 0.097*[#   1]+0.095*[#   5]+0.057*[#   3]+0.057*[#   4]+0.003*[#   7]
          +0.003*[#   8]
    |psi|^2 = 0.314
==== e(   7) =     5.68370 eV ==== 
     psi = 0.021*[#   6]+0.020*[#   2]
    |psi|^2 = 0.041
==== e(   8) =     6.02811 eV ==== 
     psi = 0.045*[#   1]+0.032*[#   5]+0.013*[#   3]+0.013*[#   4]+0.001*[#   7]
          +0.001*[#   8]
    |psi|^2 = 0.105
==== e(   9) =     6.96874 eV ==== 
     psi = 0.202*[#   1]+0.152*[#   5]+0.105*[#   3]+0.105*[#   4]+0.016*[#   7]
          +0.016*[#   8]
    |psi|^2 = 0.597
==== e(  10) =     7.97603 eV ==== 
     psi = 0.003*[#   2]+0.004*[#   6]
    |psi|^2 = 0.007
==== e(  11) =     8.80028 eV ==== 
     psi = 0.032*[#   3]+0.032*[#   4]+0.024*[#   1]+0.016*[#   5]+0.011*[#   7]
          +0.011*[#   8]
    |psi|^2 = 0.127
==== e(  12) =    11.65908 eV ==== 
     psi = 0.005*[#   2]+0.002*[#   6]
    |psi|^2 = 0.007
==== e(  13) =    12.15422 eV ==== 
     psi = 0.133*[#   1]+0.035*[#   7]+0.035*[#   8]+0.033*[#   5]+0.031*[#   3]
          +0.031*[#   4]
    |psi|^2 = 0.299
==== e(  14) =    13.80214 eV ==== 
     psi = 0.060*[#   1]+0.014*[#   7]+0.014*[#   8]+0.012*[#   5]+0.006*[#   3]
          +0.006*[#   4]
    |psi|^2 = 0.112
==== e(  15) =    14.70846 eV ==== 
     psi = 0.012*[#   2]+0.010*[#   6]
    |psi|^2 = 0.022
==== e(  16) =    14.90720 eV ==== 
     psi = 0.321*[#   3]+0.321*[#   4]+0.143*[#   7]+0.143*[#   8]
    |psi|^2 = 0.929

 k =   0.0000000000  0.4041451884  0.0000000000
==== e(   1) =   -19.13422 eV ==== 
     psi = 0.527*[#   5]+0.151*[#   3]+0.151*[#   4]+0.119*[#   1]+0.021*[#   7]
          +0.021*[#   8]
    |psi|^2 = 0.989
==== e(   2) =   -10.80560 eV ==== 
     psi = 0.333*[#   7]+0.333*[#   8]+0.161*[#   1]+0.059*[#   5]+0.053*[#   3]
          +0.053*[#   4]
    |psi|^2 = 0.992
==== e(   3) =    -7.33600 eV ==== 
     psi = 0.341*[#   7]+0.341*[#   8]+0.157*[#   3]+0.157*[#   4]
    |psi|^2 = 0.997
==== e(   4) =    -5.96741 eV ==== 
     psi = 0.693*[#   6]+0.302*[#   2]
    |psi|^2 = 0.995
==== e(   5) =     3.07632 eV ==== 
     psi = 0.656*[#   2]+0.271*[#   6]
    |psi|^2 = 0.928
==== e(   6) =     4.43145 eV ==== 
     psi = 0.112*[#   1]+0.100*[#   5]+0.057*[#   3]+0.057*[#   4]+0.004*[#   7]
          +0.004*[#   8]
    |psi|^2 = 0.333
==== e(   7) =     5.95862 eV ==== 
     psi = 0.011*[#   2]+0.011*[#   6]
    |psi|^2 = 0.022
==== e(   8) =     6.33584 eV ==== 
     psi = 0.073*[#   1]+0.052*[#   5]+0.023*[#   3]+0.023*[#   4]+0.003*[#   7]
          +0.003*[#   8]
    |psi|^2 = 0.177
==== e(   9) =     7.03459 eV ==== 
     psi = 0.168*[#   1]+0.131*[#   5]+0.093*[#   3]+0.093*[#   4]+0.014*[#   7]
          +0.014*[#   8]
    |psi|^2 = 0.513
==== e(  10) =     8.29690 eV ==== 
     psi = 0.003*[#   2]+0.002*[#   6]
    |psi|^2 = 0.006
==== e(  11) =     9.12162 eV ==== 
     psi = 0.027*[#   3]+0.027*[#   4]+0.024*[#   1]+0.014*[#   5]+0.010*[#   7]
          +0.010*[#   8]
    |psi|^2 = 0.112
==== e(  12) =    11.91651 eV ==== 
     psi = 0.006*[#   2]+0.003*[#   6]
    |psi|^2 = 0.009
==== e(  13) =    12.33890 eV ==== 
     psi = 0.143*[#   1]+0.038*[#   7]+0.038*[#   8]+0.032*[#   3]+0.032*[#   4]
          +0.032*[#   5]
    |psi|^2 = 0.314
==== e(  14) =    13.66350 eV ==== 
     psi = 0.014*[#   1]+0.003*[#   5]+0.003*[#   7]+0.003*[#   8]+0.002*[#   3]
          +0.002*[#   4]
    |psi|^2 = 0.026
==== e(  15) =    14.35347 eV ==== 
     psi = 0.010*[#   2]+0.009*[#   6]
    |psi|^2 = 0.019
==== e(  16) =    15.39077 eV ==== 
     psi = 0.321*[#   3]+0.321*[#   4]+0.145*[#   7]+0.145*[#   8]
    |psi|^2 = 0.931

 k =   0.0000000000  0.4233901974  0.0000000000
==== e(   1) =   -18.97327 eV ==== 
     psi = 0.533*[#   5]+0.156*[#   3]+0.156*[#   4]+0.106*[#   1]+0.019*[#   7]
          +0.019*[#   8]
    |psi|^2 = 0.989
==== e(   2) =   -11.11018 eV ==== 
     psi = 0.333*[#   7]+0.333*[#   8]+0.169*[#   1]+0.054*[#   5]+0.051*[#   3]
          +0.051*[#   4]
    |psi|^2 = 0.992
==== e(   3) =    -7.42776 eV ==== 
     psi = 0.340*[#   7]+0.340*[#   8]+0.158*[#   3]+0.158*[#   4]
    |psi|^2 = 0.997
==== e(   4) =    -5.73591 eV ==== 
     psi = 0.712*[#   6]+0.283*[#   2]
    |psi|^2 = 0.995
==== e(   5) =     2.77809 eV ==== 
     psi = 0.678*[#   2]+0.257*[#   6]
    |psi|^2 = 0.935
==== e(   6) =     4.74843 eV ==== 
     psi = 0.133*[#   1]+0.108*[#   5]+0.058*[#   3]+0.058*[#   4]+0.004*[#   7]
          +0.004*[#   8]
    |psi|^2 = 0.365
==== e(   7) =     6.27382 eV ==== 
     psi = 0.008*[#   2]+0.006*[#   6]
    |psi|^2 = 0.014
==== e(   8) =     6.59993 eV ==== 
     psi = 0.126*[#   1]+0.092*[#   5]+0.046*[#   3]+0.046*[#   4]+0.006*[#   7]
          +0.006*[#   8]
    |psi|^2 = 0.322
==== e(   9) =     7.17069 eV ==== 
     psi = 0.103*[#   1]+0.085*[#   5]+0.065*[#   3]+0.065*[#   4]+0.010*[#   7]
          +0.010*[#   8]
    |psi|^2 = 0.339
==== e(  10) =     8.63782 eV ==== 
     psi = 0.003*[#   2]+0.002*[#   6]
    |psi|^2 = 0.005
==== e(  11) =     9.46353 eV ==== 
     psi = 0.025*[#   1]+0.024*[#   3]+0.024*[#   4]+0.012*[#   5]+0.010*[#   7]
          +0.010*[#   8]
    |psi|^2 = 0.104
==== e(  12) =    12.15290 eV ==== 
     psi = 0.008*[#   2]+0.005*[#   6]
    |psi|^2 = 0.013
==== e(  13) =    12.34536 eV ==== 
     psi = 0.131*[#   1]+0.033*[#   7]+0.033*[#   8]+0.028*[#   3]+0.028*[#   4]
          +0.026*[#   5]
    |psi|^2 = 0.280
==== e(  14) =    13.59785 eV ==== 
     psi = 0.003*[#   3]+0.003*[#   4]+0.002*[#   1]+0.001*[#   5]+0.001*[#   7]
          +0.001*[#   8]
    |psi|^2 = 0.012
==== e(  15) =    13.97216 eV ==== 
     psi = 0.007*[#   2]+0.006*[#   6]
    |psi|^2 = 0.013
==== e(  16) =    15.13966 eV ==== 
     psi = 0.020*[#   1]+0.006*[#   7]+0.006*[#   8]+0.004*[#   5]+0.003*[#   3]
          +0.003*[#   4]
    |psi|^2 = 0.042

 k =   0.0000000000  0.4426352064  0.0000000000
==== e(   1) =   -18.81725 eV ==== 
     psi = 0.541*[#   5]+0.160*[#   3]+0.160*[#   4]+0.094*[#   1]+0.017*[#   7]
          +0.017*[#   8]
    |psi|^2 = 0.989
==== e(   2) =   -11.39514 eV ==== 
     psi = 0.334*[#   7]+0.334*[#   8]+0.178*[#   1]+0.049*[#   3]+0.049*[#   4]
          +0.048*[#   5]
    |psi|^2 = 0.992
==== e(   3) =    -7.51025 eV ==== 
     psi = 0.339*[#   7]+0.339*[#   8]+0.160*[#   3]+0.160*[#   4]
    |psi|^2 = 0.997
==== e(   4) =    -5.50878 eV ==== 
     psi = 0.733*[#   6]+0.262*[#   2]
    |psi|^2 = 0.995
==== e(   5) =     2.47586 eV ==== 
     psi = 0.699*[#   2]+0.239*[#   6]
    |psi|^2 = 0.938
==== e(   6) =     5.06011 eV ==== 
     psi = 0.162*[#   1]+0.121*[#   5]+0.061*[#   3]+0.061*[#   4]+0.005*[#   7]
          +0.005*[#   8]
    |psi|^2 = 0.415
==== e(   7) =     6.61861 eV ==== 
     psi = 0.007*[#   2]+0.004*[#   6]
    |psi|^2 = 0.010
==== e(   8) =     6.78413 eV ==== 
     psi = 0.166*[#   1]+0.127*[#   5]+0.071*[#   3]+0.071*[#   4]+0.009*[#   7]
          +0.009*[#   8]
    |psi|^2 = 0.452
==== e(   9) =     7.42253 eV ==== 
     psi = 0.041*[#   1]+0.037*[#   5]+0.034*[#   3]+0.034*[#   4]+0.006*[#   7]
          +0.006*[#   8]
    |psi|^2 = 0.158
==== e(  10) =     8.99597 eV ==== 
     psi = 0.004*[#   2]+0.002*[#   6]
    |psi|^2 = 0.005
==== e(  11) =     9.82160 eV ==== 
     psi = 0.028*[#   1]+0.022*[#   3]+0.022*[#   4]+0.011*[#   5]+0.010*[#   7]
          +0.010*[#   8]
    |psi|^2 = 0.103
==== e(  12) =    12.10876 eV ==== 
     psi = 0.092*[#   1]+0.022*[#   7]+0.022*[#   8]+0.019*[#   3]+0.019*[#   4]
          +0.017*[#   5]
    |psi|^2 = 0.192
==== e(  13) =    12.31959 eV ==== 
     psi = 0.011*[#   2]+0.007*[#   6]
    |psi|^2 = 0.018
==== e(  14) =    13.62642 eV ==== 
     psi = 0.003*[#   2]+0.003*[#   6]
    |psi|^2 = 0.006
==== e(  15) =    13.69481 eV ==== 
     psi = 0.029*[#   1]+0.011*[#   3]+0.011*[#   4]+0.010*[#   7]+0.010*[#   8]
          +0.006*[#   5]
    |psi|^2 = 0.078
==== e(  16) =    14.58159 eV ==== 
     psi = 0.006*[#   1]+0.001*[#   7]+0.001*[#   8]
    |psi|^2 = 0.011

 k =   0.0000000000  0.4618802154  0.0000000000
==== e(   1) =   -18.66917 eV ==== 
     psi = 0.549*[#   5]+0.165*[#   3]+0.165*[#   4]+0.083*[#   1]+0.014*[#   7]
          +0.014*[#   8]
    |psi|^2 = 0.989
==== e(   2) =   -11.65595 eV ==== 
     psi = 0.336*[#   7]+0.336*[#   8]+0.186*[#   1]+0.047*[#   3]+0.047*[#   4]
          +0.041*[#   5]
    |psi|^2 = 0.992
==== e(   3) =    -7.58225 eV ==== 
     psi = 0.338*[#   7]+0.338*[#   8]+0.161*[#   3]+0.161*[#   4]
    |psi|^2 = 0.997
==== e(   4) =    -5.28991 eV ==== 
     psi = 0.756*[#   6]+0.239*[#   2]
    |psi|^2 = 0.995
==== e(   5) =     2.18338 eV ==== 
     psi = 0.722*[#   2]+0.218*[#   6]
    |psi|^2 = 0.939
==== e(   6) =     5.35403 eV ==== 
     psi = 0.201*[#   1]+0.142*[#   5]+0.067*[#   3]+0.067*[#   4]+0.005*[#   7]
          +0.005*[#   8]
    |psi|^2 = 0.489
==== e(   7) =     6.92416 eV ==== 
     psi = 0.158*[#   1]+0.128*[#   5]+0.076*[#   3]+0.076*[#   4]+0.010*[#   7]
          +0.010*[#   8]
    |psi|^2 = 0.459
==== e(   8) =     6.98695 eV ==== 
     psi = 0.006*[#   2]+0.003*[#   6]
    |psi|^2 = 0.009
==== e(   9) =     7.76786 eV ==== 
     psi = 0.018*[#   3]+0.018*[#   4]+0.016*[#   1]+0.016*[#   5]+0.003*[#   7]
          +0.003*[#   8]
    |psi|^2 = 0.074
==== e(  10) =     9.36852 eV ==== 
     psi = 0.004*[#   2]+0.002*[#   6]
    |psi|^2 = 0.006
==== e(  11) =    10.18855 eV ==== 
     psi = 0.034*[#   1]+0.022*[#   3]+0.022*[#   4]+0.011*[#   7]+0.011*[#   8]
          +0.011*[#   5]
    |psi|^2 = 0.109
==== e(  12) =    11.72634 eV ==== 
     psi = 0.057*[#   1]+0.013*[#   7]+0.013*[#   8]+0.012*[#   3]+0.012*[#   4]
          +0.010*[#   5]
    |psi|^2 = 0.117
==== e(  13) =    12.30428 eV ==== 
     psi = 0.014*[#   2]+0.009*[#   6]
    |psi|^2 = 0.022
==== e(  14) =    13.43220 eV ==== 

    |psi|^2 = 0.001
==== e(  15) =    13.73986 eV ==== 
     psi = 0.047*[#   1]+0.014*[#   7]+0.014*[#   8]+0.013*[#   3]+0.013*[#   4]
          +0.008*[#   5]
    |psi|^2 = 0.108
==== e(  16) =    14.17354 eV ==== 
     psi = 0.011*[#   1]+0.005*[#   3]+0.005*[#   4]+0.004*[#   7]+0.004*[#   8]
          +0.002*[#   5]
    |psi|^2 = 0.032

 k =   0.0000000000  0.4811252243  0.0000000000
==== e(   1) =   -18.53273 eV ==== 
     psi = 0.557*[#   5]+0.169*[#   3]+0.169*[#   4]+0.072*[#   1]+0.011*[#   7]
          +0.011*[#   8]
    |psi|^2 = 0.989
==== e(   2) =   -11.88848 eV ==== 
     psi = 0.338*[#   7]+0.338*[#   8]+0.194*[#   1]+0.044*[#   3]+0.044*[#   4]
          +0.034*[#   5]
    |psi|^2 = 0.992
==== e(   3) =    -7.64357 eV ==== 
     psi = 0.337*[#   7]+0.337*[#   8]+0.161*[#   3]+0.161*[#   4]
    |psi|^2 = 0.996
==== e(   4) =    -5.08511 eV ==== 
     psi = 0.780*[#   6]+0.215*[#   2]
    |psi|^2 = 0.995
==== e(   5) =     1.91078 eV ==== 
     psi = 0.746*[#   2]+0.195*[#   6]
    |psi|^2 = 0.940
==== e(   6) =     5.61220 eV ==== 
     psi = 0.249*[#   1]+0.172*[#   5]+0.077*[#   3]+0.077*[#   4]+0.007*[#   7]
          +0.007*[#   8]
    |psi|^2 = 0.589
==== e(   7) =     7.08072 eV ==== 
     psi = 0.123*[#   1]+0.108*[#   5]+0.069*[#   3]+0.069*[#   4]+0.009*[#   7]
          +0.009*[#   8]
    |psi|^2 = 0.388
==== e(   8) =     7.37470 eV ==== 
     psi = 0.006*[#   2]+0.003*[#   6]
    |psi|^2 = 0.009
==== e(   9) =     8.16359 eV ==== 
     psi = 0.011*[#   3]+0.011*[#   4]+0.008*[#   1]+0.008*[#   5]+0.002*[#   7]
          +0.002*[#   8]
    |psi|^2 = 0.043
==== e(  10) =     9.75075 eV ==== 
     psi = 0.005*[#   2]+0.002*[#   6]
    |psi|^2 = 0.007
==== e(  11) =    10.53190 eV ==== 
     psi = 0.048*[#   1]+0.024*[#   3]+0.024*[#   4]+0.014*[#   7]+0.014*[#   8]
          +0.012*[#   5]
    |psi|^2 = 0.136
==== e(  12) =    11.31826 eV ==== 
     psi = 0.024*[#   1]+0.005*[#   5]+0.005*[#   3]+0.005*[#   4]+0.005*[#   7]
          +0.005*[#   8]
    |psi|^2 = 0.049
==== e(  13) =    12.04384 eV ==== 
     psi = 0.012*[#   2]+0.008*[#   6]
    |psi|^2 = 0.019
==== e(  14) =    13.28448 eV ==== 
     psi = 0.018*[#   1]+0.005*[#   7]+0.005*[#   8]+0.004*[#   3]+0.004*[#   4]
          +0.003*[#   5]
    |psi|^2 = 0.039
==== e(  15) =    13.43759 eV ==== 
     psi = 0.003*[#   2]+0.002*[#   6]
    |psi|^2 = 0.004
==== e(  16) =    14.28336 eV ==== 
     psi = 0.064*[#   1]+0.020*[#   7]+0.020*[#   8]+0.019*[#   3]+0.019*[#   4]
          +0.009*[#   5]
    |psi|^2 = 0.152

 k =   0.0000000000  0.5003702333  0.0000000000
==== e(   1) =   -18.41226 eV ==== 
     psi = 0.566*[#   5]+0.173*[#   3]+0.173*[#   4]+0.062*[#   1]+0.008*[#   7]
          +0.008*[#   8]
    |psi|^2 = 0.990
==== e(   2) =   -12.08808 eV ==== 
     psi = 0.340*[#   7]+0.340*[#   8]+0.202*[#   1]+0.042*[#   3]+0.042*[#   4]
          +0.026*[#   5]
    |psi|^2 = 0.991
==== e(   3) =    -7.69410 eV ==== 
     psi = 0.336*[#   7]+0.336*[#   8]+0.162*[#   3]+0.162*[#   4]
    |psi|^2 = 0.996
==== e(   4) =    -4.90140 eV ==== 
     psi = 0.803*[#   6]+0.191*[#   2]
    |psi|^2 = 0.994
==== e(   5) =     1.66832 eV ==== 
     psi = 0.769*[#   2]+0.172*[#   6]
    |psi|^2 = 0.941
==== e(   6) =     5.81617 eV ==== 
     psi = 0.299*[#   1]+0.204*[#   5]+0.089*[#   3]+0.089*[#   4]+0.008*[#   7]
          +0.008*[#   8]
    |psi|^2 = 0.696
==== e(   7) =     7.29097 eV ==== 
     psi = 0.082*[#   1]+0.079*[#   5]+0.057*[#   3]+0.057*[#   4]+0.008*[#   7]
          +0.008*[#   8]
    |psi|^2 = 0.291
==== e(   8) =     7.77831 eV ==== 
     psi = 0.007*[#   2]+0.003*[#   6]
    |psi|^2 = 0.009
==== e(   9) =     8.58946 eV ==== 
     psi = 0.008*[#   3]+0.008*[#   4]+0.006*[#   1]+0.005*[#   5]+0.002*[#   7]
          +0.002*[#   8]
    |psi|^2 = 0.032
==== e(  10) =    10.13104 eV ==== 
     psi = 0.006*[#   2]+0.003*[#   6]
    |psi|^2 = 0.009
==== e(  11) =    10.57881 eV ==== 
     psi = 0.059*[#   1]+0.024*[#   3]+0.024*[#   4]+0.015*[#   7]+0.015*[#   8]
          +0.013*[#   5]
    |psi|^2 = 0.150
==== e(  12) =    11.19719 eV ==== 
     psi = 0.003*[#   3]+0.003*[#   4]+0.002*[#   1]+0.002*[#   5]+0.001*[#   7]
          +0.001*[#   8]
    |psi|^2 = 0.012
==== e(  13) =    11.66081 eV ==== 
     psi = 0.008*[#   2]+0.006*[#   6]
    |psi|^2 = 0.014
==== e(  14) =    12.72209 eV ==== 
     psi = 0.010*[#   1]+0.003*[#   7]+0.003*[#   8]+0.002*[#   3]+0.002*[#   4]
          +0.001*[#   5]
    |psi|^2 = 0.021
==== e(  15) =    13.46278 eV ==== 
     psi = 0.006*[#   2]+0.004*[#   6]
    |psi|^2 = 0.010
==== e(  16) =    14.39238 eV ==== 
     psi = 0.088*[#   1]+0.027*[#   7]+0.027*[#   8]+0.023*[#   3]+0.023*[#   4]
          +0.011*[#   5]
    |psi|^2 = 0.201

 k =   0.0000000000  0.5196152423  0.0000000000
==== e(   1) =   -18.31214 eV ==== 
     psi = 0.574*[#   5]+0.176*[#   3]+0.176*[#   4]+0.054*[#   1]+0.005*[#   7]
          +0.005*[#   8]
    |psi|^2 = 0.990
==== e(   2) =   -12.25014 eV ==== 
     psi = 0.342*[#   7]+0.342*[#   8]+0.208*[#   1]+0.039*[#   3]+0.039*[#   4]
          +0.019*[#   5]
    |psi|^2 = 0.991
==== e(   3) =    -7.73365 eV ==== 
     psi = 0.336*[#   7]+0.336*[#   8]+0.163*[#   3]+0.163*[#   4]
    |psi|^2 = 0.996
==== e(   4) =    -4.74623 eV ==== 
     psi = 0.825*[#   6]+0.169*[#   2]
    |psi|^2 = 0.994
==== e(   5) =     1.46521 eV ==== 
     psi = 0.792*[#   2]+0.150*[#   6]
    |psi|^2 = 0.942
==== e(   6) =     5.95821 eV ==== 
     psi = 0.337*[#   1]+0.231*[#   5]+0.099*[#   3]+0.099*[#   4]+0.009*[#   7]
          +0.009*[#   8]
    |psi|^2 = 0.784
==== e(   7) =     7.56797 eV ==== 
     psi = 0.052*[#   5]+0.050*[#   1]+0.046*[#   3]+0.046*[#   4]+0.007*[#   7]
          +0.007*[#   8]
    |psi|^2 = 0.209
==== e(   8) =     8.19367 eV ==== 
     psi = 0.007*[#   2]+0.003*[#   6]
    |psi|^2 = 0.010
==== e(   9) =     9.03590 eV ==== 
     psi = 0.007*[#   3]+0.007*[#   4]+0.007*[#   1]+0.004*[#   5]+0.002*[#   7]
          +0.002*[#   8]
    |psi|^2 = 0.029
==== e(  10) =    10.18773 eV ==== 
     psi = 0.036*[#   1]+0.015*[#   3]+0.015*[#   4]+0.010*[#   5]+0.009*[#   7]
          +0.009*[#   8]
    |psi|^2 = 0.094
==== e(  11) =    10.45845 eV ==== 
     psi = 0.009*[#   2]+0.005*[#   6]
    |psi|^2 = 0.013
==== e(  12) =    11.29521 eV ==== 
     psi = 0.004*[#   2]+0.003*[#   6]
    |psi|^2 = 0.007
==== e(  13) =    11.51776 eV ==== 
     psi = 0.020*[#   1]+0.010*[#   3]+0.010*[#   4]+0.006*[#   7]+0.006*[#   8]
          +0.004*[#   5]
    |psi|^2 = 0.057
==== e(  14) =    12.16764 eV ==== 
     psi = 0.004*[#   1]+0.001*[#   3]+0.001*[#   4]+0.001*[#   7]+0.001*[#   8]
          
    |psi|^2 = 0.009
==== e(  15) =    13.30344 eV ==== 
     psi = 0.007*[#   2]+0.005*[#   6]
    |psi|^2 = 0.012
==== e(  16) =    14.21094 eV ==== 
     psi = 0.070*[#   1]+0.021*[#   7]+0.021*[#   8]+0.018*[#   3]+0.018*[#   4]
          +0.008*[#   5]
    |psi|^2 = 0.155

 k =   0.0000000000  0.5388602512  0.0000000000
==== e(   1) =   -18.23671 eV ==== 
     psi = 0.581*[#   5]+0.179*[#   3]+0.179*[#   4]+0.047*[#   1]+0.002*[#   7]
          +0.002*[#   8]
    |psi|^2 = 0.990
==== e(   2) =   -12.36995 eV ==== 
     psi = 0.345*[#   7]+0.345*[#   8]+0.213*[#   1]+0.038*[#   3]+0.038*[#   4]
          +0.013*[#   5]
    |psi|^2 = 0.991
==== e(   3) =    -7.76187 eV ==== 
     psi = 0.335*[#   7]+0.335*[#   8]+0.163*[#   3]+0.163*[#   4]
    |psi|^2 = 0.996
==== e(   4) =    -4.62771 eV ==== 
     psi = 0.843*[#   6]+0.150*[#   2]
    |psi|^2 = 0.994
==== e(   5) =     1.31128 eV ==== 
     psi = 0.810*[#   2]+0.132*[#   6]
    |psi|^2 = 0.942
==== e(   6) =     6.04574 eV ==== 
     psi = 0.359*[#   1]+0.248*[#   5]+0.106*[#   3]+0.106*[#   4]+0.009*[#   7]
          +0.009*[#   8]
    |psi|^2 = 0.838
==== e(   7) =     7.90242 eV ==== 
     psi = 0.038*[#   3]+0.038*[#   4]+0.035*[#   5]+0.034*[#   1]+0.007*[#   7]
          +0.007*[#   8]
    |psi|^2 = 0.159
==== e(   8) =     8.61267 eV ==== 
     psi = 0.008*[#   2]+0.004*[#   6]
    |psi|^2 = 0.012
==== e(   9) =     9.46922 eV ==== 
     psi = 0.016*[#   1]+0.012*[#   3]+0.012*[#   4]+0.006*[#   5]+0.005*[#   7]
          +0.005*[#   8]
    |psi|^2 = 0.053
==== e(  10) =     9.76765 eV ==== 
     psi = 0.015*[#   1]+0.008*[#   5]+0.007*[#   3]+0.007*[#   4]+0.003*[#   7]
          +0.003*[#   8]
    |psi|^2 = 0.042
==== e(  11) =    10.47161 eV ==== 
     psi = 0.010*[#   2]+0.005*[#   6]
    |psi|^2 = 0.015
==== e(  12) =    11.24166 eV ==== 
     psi = 0.002*[#   2]
    |psi|^2 = 0.003
==== e(  13) =    11.56178 eV ==== 
     psi = 0.014*[#   1]+0.005*[#   3]+0.005*[#   4]+0.004*[#   7]+0.004*[#   8]
          +0.002*[#   5]
    |psi|^2 = 0.035
==== e(  14) =    11.98148 eV ==== 
     psi = 0.019*[#   1]+0.008*[#   3]+0.008*[#   4]+0.006*[#   7]+0.006*[#   8]
          +0.003*[#   5]
    |psi|^2 = 0.049
==== e(  15) =    12.97019 eV ==== 
     psi = 0.006*[#   2]+0.004*[#   6]
    |psi|^2 = 0.009
==== e(  16) =    13.83559 eV ==== 
     psi = 0.044*[#   1]+0.013*[#   7]+0.013*[#   8]+0.012*[#   3]+0.012*[#   4]
          +0.004*[#   5]
    |psi|^2 = 0.098

 k =   0.0000000000  0.5581052602  0.0000000000
==== e(   1) =   -18.18963 eV ==== 
     psi = 0.585*[#   5]+0.181*[#   3]+0.181*[#   4]+0.043*[#   1]
    |psi|^2 = 0.990
==== e(   2) =   -12.44340 eV ==== 
     psi = 0.346*[#   7]+0.346*[#   8]+0.217*[#   1]+0.036*[#   3]+0.036*[#   4]
          +0.009*[#   5]
    |psi|^2 = 0.991
==== e(   3) =    -7.77874 eV ==== 
     psi = 0.335*[#   7]+0.335*[#   8]+0.163*[#   3]+0.163*[#   4]
    |psi|^2 = 0.996
==== e(   4) =    -4.55295 eV ==== 
     psi = 0.856*[#   6]+0.138*[#   2]
    |psi|^2 = 0.993
==== e(   5) =     1.21512 eV ==== 
     psi = 0.823*[#   2]+0.120*[#   6]
    |psi|^2 = 0.943
==== e(   6) =     6.09187 eV ==== 
     psi = 0.370*[#   1]+0.257*[#   5]+0.110*[#   3]+0.110*[#   4]+0.009*[#   7]
          +0.009*[#   8]
    |psi|^2 = 0.866
==== e(   7) =     8.26586 eV ==== 
     psi = 0.037*[#   3]+0.037*[#   4]+0.030*[#   1]+0.025*[#   5]+0.009*[#   7]
          +0.009*[#   8]
    |psi|^2 = 0.146
==== e(   8) =     9.00906 eV ==== 
     psi = 0.011*[#   2]+0.005*[#   6]
    |psi|^2 = 0.016
==== e(   9) =     9.26412 eV ==== 
     psi = 0.018*[#   1]+0.012*[#   5]+0.012*[#   3]+0.012*[#   4]+0.004*[#   7]
          +0.004*[#   8]
    |psi|^2 = 0.062
==== e(  10) =    10.02278 eV ==== 
     psi = 0.003*[#   1]+0.002*[#   3]+0.002*[#   4]+0.001*[#   5]
    |psi|^2 = 0.011
==== e(  11) =    10.15194 eV ==== 
     psi = 0.006*[#   2]+0.003*[#   6]
    |psi|^2 = 0.009
==== e(  12) =    11.04507 eV ==== 
     psi = 0.007*[#   1]+0.003*[#   3]+0.003*[#   4]+0.002*[#   7]+0.002*[#   8]
          +0.001*[#   5]
    |psi|^2 = 0.018
==== e(  13) =    11.53281 eV ==== 
     psi = 0.004*[#   2]+0.002*[#   6]
    |psi|^2 = 0.007
==== e(  14) =    12.37553 eV ==== 
     psi = 0.037*[#   1]+0.013*[#   3]+0.013*[#   4]+0.011*[#   7]+0.011*[#   8]
          +0.005*[#   5]
    |psi|^2 = 0.090
==== e(  15) =    12.59621 eV ==== 
     psi = 0.003*[#   2]+0.002*[#   6]
    |psi|^2 = 0.005
==== e(  16) =    13.42113 eV ==== 
     psi = 0.023*[#   1]+0.007*[#   3]+0.007*[#   4]+0.007*[#   7]+0.007*[#   8]
          +0.002*[#   5]
    |psi|^2 = 0.053

 k =   0.0000000000 -0.5773502692  0.0000000000
==== e(   1) =   -18.17356 eV ==== 
     psi = 0.586*[#   5]+0.181*[#   3]+0.181*[#   4]+0.041*[#   1]
    |psi|^2 = 0.990
==== e(   2) =   -12.46787 eV ==== 
     psi = 0.346*[#   7]+0.346*[#   8]+0.218*[#   1]+0.036*[#   3]+0.036*[#   4]
          +0.008*[#   5]
    |psi|^2 = 0.991
==== e(   3) =    -7.78429 eV ==== 
     psi = 0.335*[#   7]+0.335*[#   8]+0.163*[#   3]+0.163*[#   4]
    |psi|^2 = 0.996
==== e(   4) =    -4.52733 eV ==== 
     psi = 0.860*[#   6]+0.133*[#   2]
    |psi|^2 = 0.993
==== e(   5) =     1.18231 eV ==== 
     psi = 0.827*[#   2]+0.115*[#   6]
    |psi|^2 = 0.943
==== e(   6) =     6.10631 eV ==== 
     psi = 0.373*[#   1]+0.260*[#   5]+0.111*[#   3]+0.111*[#   4]+0.010*[#   7]
          +0.010*[#   8]
    |psi|^2 = 0.874
==== e(   7) =     8.51234 eV ==== 
     psi = 0.045*[#   3]+0.045*[#   4]+0.039*[#   1]+0.022*[#   5]+0.012*[#   7]
          +0.012*[#   8]
    |psi|^2 = 0.174
==== e(   8) =     8.99969 eV ==== 
     psi = 0.012*[#   5]+0.005*[#   1]+0.001*[#   3]+0.001*[#   4]
    |psi|^2 = 0.020
==== e(   9) =     9.23354 eV ==== 
     psi = 0.013*[#   2]+0.007*[#   6]
    |psi|^2 = 0.020
==== e(  10) =     9.93599 eV ==== 
     psi = 0.002*[#   2]+0.001*[#   6]
    |psi|^2 = 0.004
==== e(  11) =    10.47434 eV ==== 
     psi = 0.010*[#   1]+0.005*[#   3]+0.005*[#   4]+0.003*[#   7]+0.003*[#   8]
          +0.002*[#   5]
    |psi|^2 = 0.029
==== e(  12) =    10.57260 eV ==== 

    |psi|^2 = 0.001
==== e(  13) =    11.74147 eV ==== 
     psi = 0.007*[#   2]+0.004*[#   6]
    |psi|^2 = 0.011
==== e(  14) =    12.37303 eV ==== 

    |psi|^2 = 0.001
==== e(  15) =    12.64216 eV ==== 
     psi = 0.059*[#   1]+0.019*[#   3]+0.019*[#   4]+0.017*[#   7]+0.017*[#   8]
          +0.007*[#   5]
    |psi|^2 = 0.138
==== e(  16) =    13.15048 eV ==== 

    |psi|^2 = 0.002

 k =   0.0166666667  0.0288675135  0.0000000000
==== e(   1) =   -21.20125 eV ==== 
     psi = 0.563*[#   5]+0.421*[#   1]+0.003*[#   3]+0.003*[#   4]
    |psi|^2 = 0.992
==== e(   2) =    -8.81977 eV ==== 
     psi = 0.558*[#   6]+0.406*[#   2]
    |psi|^2 = 0.964
==== e(   3) =    -5.08543 eV ==== 
     psi = 0.389*[#   7]+0.389*[#   8]+0.106*[#   3]+0.106*[#   4]+0.004*[#   1]
          +0.002*[#   5]
    |psi|^2 = 0.996
==== e(   4) =    -5.04851 eV ==== 
     psi = 0.390*[#   7]+0.390*[#   8]+0.109*[#   3]+0.109*[#   4]
    |psi|^2 = 0.996
==== e(   5) =     0.77867 eV ==== 
     psi = 0.164*[#   1]+0.087*[#   5]+0.004*[#   3]+0.004*[#   4]
    |psi|^2 = 0.259
==== e(   6) =     1.87180 eV ==== 
     psi = 0.203*[#   2]+0.052*[#   6]
    |psi|^2 = 0.256
==== e(   7) =     2.60939 eV ==== 
     psi = 0.025*[#   1]+0.014*[#   5]
    |psi|^2 = 0.040
==== e(   8) =     4.31273 eV ==== 
     psi = 0.098*[#   2]+0.037*[#   6]
    |psi|^2 = 0.134
==== e(   9) =     5.03614 eV ==== 
     psi = 0.088*[#   1]+0.057*[#   5]
    |psi|^2 = 0.147
==== e(  10) =     7.69601 eV ==== 
     psi = 0.163*[#   2]+0.136*[#   6]
    |psi|^2 = 0.299
==== e(  11) =     7.99162 eV ==== 
     psi = 0.358*[#   3]+0.358*[#   4]+0.092*[#   7]+0.092*[#   8]+0.016*[#   5]
          
    |psi|^2 = 0.915
==== e(  12) =     8.08119 eV ==== 
     psi = 0.373*[#   3]+0.373*[#   4]+0.100*[#   7]+0.100*[#   8]+0.001*[#   1]
          
    |psi|^2 = 0.948
==== e(  13) =     8.40876 eV ==== 
     psi = 0.174*[#   1]+0.127*[#   5]+0.012*[#   3]+0.012*[#   4]+0.007*[#   7]
          +0.007*[#   8]
    |psi|^2 = 0.338
==== e(  14) =    10.07658 eV ==== 
     psi = 0.194*[#   6]+0.125*[#   2]
    |psi|^2 = 0.319
==== e(  15) =    11.10520 eV ==== 
     psi = 0.117*[#   5]+0.111*[#   1]+0.001*[#   7]+0.001*[#   8]
    |psi|^2 = 0.233
==== e(  16) =    14.16444 eV ==== 
     psi = 0.018*[#   6]+0.003*[#   2]
    |psi|^2 = 0.021

 k =   0.0166666667  0.0481125224  0.0000000000
==== e(   1) =   -21.18005 eV ==== 
     psi = 0.560*[#   5]+0.414*[#   1]+0.008*[#   3]+0.008*[#   4]+0.001*[#   7]
          +0.001*[#   8]
    |psi|^2 = 0.992
==== e(   2) =    -8.79112 eV ==== 
     psi = 0.559*[#   6]+0.406*[#   2]
    |psi|^2 = 0.965
==== e(   3) =    -5.17601 eV ==== 
     psi = 0.388*[#   7]+0.388*[#   8]+0.103*[#   3]+0.103*[#   4]+0.009*[#   1]
          +0.004*[#   5]
    |psi|^2 = 0.996
==== e(   4) =    -5.09123 eV ==== 
     psi = 0.388*[#   7]+0.388*[#   8]+0.110*[#   3]+0.110*[#   4]
    |psi|^2 = 0.996
==== e(   5) =     0.81565 eV ==== 
     psi = 0.156*[#   1]+0.087*[#   5]+0.009*[#   3]+0.009*[#   4]
    |psi|^2 = 0.262
==== e(   6) =     1.90484 eV ==== 
     psi = 0.203*[#   2]+0.052*[#   6]
    |psi|^2 = 0.255
==== e(   7) =     2.64501 eV ==== 
     psi = 0.024*[#   1]+0.014*[#   5]
    |psi|^2 = 0.040
==== e(   8) =     4.34456 eV ==== 
     psi = 0.098*[#   2]+0.037*[#   6]
    |psi|^2 = 0.135
==== e(   9) =     5.07294 eV ==== 
     psi = 0.086*[#   1]+0.057*[#   5]+0.001*[#   3]+0.001*[#   4]
    |psi|^2 = 0.147
==== e(  10) =     7.70173 eV ==== 
     psi = 0.168*[#   2]+0.141*[#   6]
    |psi|^2 = 0.309
==== e(  11) =     7.97049 eV ==== 
     psi = 0.342*[#   3]+0.342*[#   4]+0.085*[#   7]+0.085*[#   8]+0.030*[#   5]
          +0.001*[#   1]
    |psi|^2 = 0.885
==== e(  12) =     8.17176 eV ==== 
     psi = 0.367*[#   3]+0.367*[#   4]+0.100*[#   7]+0.100*[#   8]+0.005*[#   1]
          +0.002*[#   5]
    |psi|^2 = 0.941
==== e(  13) =     8.47028 eV ==== 
     psi = 0.177*[#   1]+0.113*[#   5]+0.023*[#   3]+0.023*[#   4]+0.013*[#   7]
          +0.013*[#   8]
    |psi|^2 = 0.362
==== e(  14) =    10.04516 eV ==== 
     psi = 0.188*[#   6]+0.121*[#   2]
    |psi|^2 = 0.309
==== e(  15) =    11.15871 eV ==== 
     psi = 0.117*[#   1]+0.115*[#   5]+0.003*[#   7]+0.003*[#   8]+0.002*[#   3]
          +0.002*[#   4]
    |psi|^2 = 0.242
==== e(  16) =    14.18059 eV ==== 
     psi = 0.017*[#   6]+0.003*[#   2]
    |psi|^2 = 0.020

 k =   0.0166666667  0.0673575314  0.0000000000
==== e(   1) =   -21.14828 eV ==== 
     psi = 0.556*[#   5]+0.402*[#   1]+0.014*[#   3]+0.014*[#   4]+0.003*[#   7]
          +0.003*[#   8]
    |psi|^2 = 0.992
==== e(   2) =    -8.74821 eV ==== 
     psi = 0.560*[#   6]+0.405*[#   2]
    |psi|^2 = 0.965
==== e(   3) =    -5.30923 eV ==== 
     psi = 0.386*[#   7]+0.386*[#   8]+0.100*[#   3]+0.100*[#   4]+0.015*[#   1]
          +0.008*[#   5]
    |psi|^2 = 0.996
==== e(   4) =    -5.15328 eV ==== 
     psi = 0.387*[#   7]+0.387*[#   8]+0.112*[#   3]+0.112*[#   4]
    |psi|^2 = 0.996
==== e(   5) =     0.87076 eV ==== 
     psi = 0.146*[#   1]+0.088*[#   5]+0.016*[#   3]+0.016*[#   4]
    |psi|^2 = 0.265
==== e(   6) =     1.95432 eV ==== 
     psi = 0.202*[#   2]+0.052*[#   6]
    |psi|^2 = 0.254
==== e(   7) =     2.69837 eV ==== 
     psi = 0.023*[#   1]+0.014*[#   5]+0.001*[#   3]+0.001*[#   4]
    |psi|^2 = 0.040
==== e(   8) =     4.39211 eV ==== 
     psi = 0.099*[#   2]+0.038*[#   6]
    |psi|^2 = 0.136
==== e(   9) =     5.12767 eV ==== 
     psi = 0.084*[#   1]+0.057*[#   5]+0.003*[#   3]+0.003*[#   4]
    |psi|^2 = 0.146
==== e(  10) =     7.70752 eV ==== 
     psi = 0.175*[#   2]+0.150*[#   6]
    |psi|^2 = 0.325
==== e(  11) =     7.94232 eV ==== 
     psi = 0.324*[#   3]+0.324*[#   4]+0.077*[#   7]+0.077*[#   8]+0.045*[#   5]
          +0.006*[#   1]
    |psi|^2 = 0.854
==== e(  12) =     8.30391 eV ==== 
     psi = 0.354*[#   3]+0.354*[#   4]+0.099*[#   7]+0.099*[#   8]+0.013*[#   1]
          +0.005*[#   5]
    |psi|^2 = 0.924
==== e(  13) =     8.56054 eV ==== 
     psi = 0.173*[#   1]+0.097*[#   5]+0.039*[#   3]+0.039*[#   4]+0.021*[#   7]
          +0.021*[#   8]
    |psi|^2 = 0.390
==== e(  14) =    10.00088 eV ==== 
     psi = 0.180*[#   6]+0.114*[#   2]
    |psi|^2 = 0.293
==== e(  15) =    11.23801 eV ==== 
     psi = 0.126*[#   1]+0.112*[#   5]+0.006*[#   7]+0.006*[#   8]+0.003*[#   3]
          +0.003*[#   4]
    |psi|^2 = 0.256
==== e(  16) =    14.20586 eV ==== 
     psi = 0.015*[#   6]+0.002*[#   2]
    |psi|^2 = 0.018

 k =   0.0166666667  0.0866025404  0.0000000000
==== e(   1) =   -21.10599 eV ==== 
     psi = 0.552*[#   5]+0.388*[#   1]+0.022*[#   3]+0.022*[#   4]+0.004*[#   7]
          +0.004*[#   8]
    |psi|^2 = 0.992
==== e(   2) =    -8.69112 eV ==== 
     psi = 0.561*[#   6]+0.405*[#   2]
    |psi|^2 = 0.966
==== e(   3) =    -5.48127 eV ==== 
     psi = 0.383*[#   7]+0.383*[#   8]+0.096*[#   3]+0.096*[#   4]+0.023*[#   1]
          +0.012*[#   5]
    |psi|^2 = 0.995
==== e(   4) =    -5.23362 eV ==== 
     psi = 0.384*[#   7]+0.384*[#   8]+0.114*[#   3]+0.114*[#   4]
    |psi|^2 = 0.997
==== e(   5) =     0.94365 eV ==== 
     psi = 0.133*[#   1]+0.088*[#   5]+0.024*[#   3]+0.024*[#   4]
    |psi|^2 = 0.269
==== e(   6) =     2.02014 eV ==== 
     psi = 0.201*[#   2]+0.052*[#   6]
    |psi|^2 = 0.253
==== e(   7) =     2.76940 eV ==== 
     psi = 0.022*[#   1]+0.014*[#   5]+0.002*[#   3]+0.002*[#   4]
    |psi|^2 = 0.040
==== e(   8) =     4.45514 eV ==== 
     psi = 0.100*[#   2]+0.039*[#   6]
    |psi|^2 = 0.138
==== e(   9) =     5.19985 eV ==== 
     psi = 0.081*[#   1]+0.056*[#   5]+0.004*[#   3]+0.004*[#   4]
    |psi|^2 = 0.146
==== e(  10) =     7.71017 eV ==== 
     psi = 0.185*[#   2]+0.161*[#   6]
    |psi|^2 = 0.346
==== e(  11) =     7.90889 eV ==== 
     psi = 0.306*[#   3]+0.306*[#   4]+0.071*[#   7]+0.071*[#   8]+0.058*[#   5]
          +0.014*[#   1]
    |psi|^2 = 0.827
==== e(  12) =     8.47260 eV ==== 
     psi = 0.323*[#   3]+0.323*[#   4]+0.094*[#   7]+0.094*[#   8]+0.032*[#   1]
          +0.013*[#   5]
    |psi|^2 = 0.880
==== e(  13) =     8.68119 eV ==== 
     psi = 0.156*[#   1]+0.079*[#   5]+0.070*[#   3]+0.070*[#   4]+0.032*[#   7]
          +0.032*[#   8]
    |psi|^2 = 0.438
==== e(  14) =     9.94819 eV ==== 
     psi = 0.167*[#   6]+0.104*[#   2]
    |psi|^2 = 0.271
==== e(  15) =    11.34208 eV ==== 
     psi = 0.136*[#   1]+0.109*[#   5]+0.009*[#   7]+0.009*[#   8]+0.004*[#   3]
          +0.004*[#   4]
    |psi|^2 = 0.272
==== e(  16) =    14.24109 eV ==== 
     psi = 0.013*[#   6]+0.002*[#   2]
    |psi|^2 = 0.015

 k =   0.0166666667  0.1058475494  0.0000000000
==== e(   1) =   -21.05332 eV ==== 
     psi = 0.547*[#   5]+0.372*[#   1]+0.030*[#   3]+0.030*[#   4]+0.006*[#   7]
          +0.006*[#   8]
    |psi|^2 = 0.991
==== e(   2) =    -8.61987 eV ==== 
     psi = 0.563*[#   6]+0.404*[#   2]
    |psi|^2 = 0.967
==== e(   3) =    -5.68962 eV ==== 
     psi = 0.380*[#   7]+0.380*[#   8]+0.092*[#   3]+0.092*[#   4]+0.032*[#   1]
          +0.018*[#   5]
    |psi|^2 = 0.995
==== e(   4) =    -5.33035 eV ==== 
     psi = 0.382*[#   7]+0.382*[#   8]+0.116*[#   3]+0.116*[#   4]
    |psi|^2 = 0.997
==== e(   5) =     1.03394 eV ==== 
     psi = 0.121*[#   1]+0.089*[#   5]+0.032*[#   3]+0.032*[#   4]
    |psi|^2 = 0.274
==== e(   6) =     2.10217 eV ==== 
     psi = 0.200*[#   2]+0.052*[#   6]
    |psi|^2 = 0.252
==== e(   7) =     2.85802 eV ==== 
     psi = 0.020*[#   1]+0.014*[#   5]+0.003*[#   3]+0.003*[#   4]
    |psi|^2 = 0.040
==== e(   8) =     4.53326 eV ==== 
     psi = 0.101*[#   2]+0.040*[#   6]
    |psi|^2 = 0.142
==== e(   9) =     5.28884 eV ==== 
     psi = 0.078*[#   1]+0.056*[#   5]+0.005*[#   3]+0.005*[#   4]
    |psi|^2 = 0.146
==== e(  10) =     7.70456 eV ==== 
     psi = 0.197*[#   2]+0.176*[#   6]
    |psi|^2 = 0.373
==== e(  11) =     7.87128 eV ==== 
     psi = 0.289*[#   3]+0.289*[#   4]+0.069*[#   5]+0.065*[#   7]+0.065*[#   8]
          +0.027*[#   1]
    |psi|^2 = 0.803
==== e(  12) =     8.66482 eV ==== 
     psi = 0.249*[#   3]+0.249*[#   4]+0.079*[#   7]+0.079*[#   8]+0.075*[#   1]
          +0.030*[#   5]
    |psi|^2 = 0.762
==== e(  13) =     8.84121 eV ==== 
     psi = 0.142*[#   3]+0.142*[#   4]+0.111*[#   1]+0.053*[#   5]+0.052*[#   7]
          +0.052*[#   8]
    |psi|^2 = 0.552
==== e(  14) =     9.89251 eV ==== 
     psi = 0.150*[#   6]+0.092*[#   2]
    |psi|^2 = 0.242
==== e(  15) =    11.46958 eV ==== 
     psi = 0.147*[#   1]+0.106*[#   5]+0.013*[#   7]+0.013*[#   8]+0.006*[#   3]
          +0.006*[#   4]
    |psi|^2 = 0.289
==== e(  16) =    14.28727 eV ==== 
     psi = 0.011*[#   6]+0.001*[#   2]
    |psi|^2 = 0.013

 k =   0.0166666667  0.1250925583  0.0000000000
==== e(   1) =   -20.99036 eV ==== 
[...]
    |psi|^2 = 0.992
==== e(   5) =     1.23617 eV ==== 
     psi = 0.950*[#   2]+0.040*[#   6]
    |psi|^2 = 0.990
==== e(   6) =     8.65771 eV ==== 
     psi = 0.002*[#   2]
    |psi|^2 = 0.002
==== e(   7) =     8.72748 eV ==== 
     psi = 0.220*[#   1]+0.037*[#   7]+0.037*[#   8]+0.017*[#   3]+0.017*[#   4]
          +0.017*[#   5]
    |psi|^2 = 0.346
==== e(   8) =    10.32382 eV ==== 
     psi = 0.222*[#   1]+0.057*[#   7]+0.057*[#   8]+0.044*[#   3]+0.044*[#   4]
          +0.005*[#   5]
    |psi|^2 = 0.430
==== e(   9) =    10.90537 eV ==== 

    |psi|^2 = 0.000
==== e(  10) =    11.09583 eV ==== 
     psi = 0.025*[#   3]+0.025*[#   4]+0.010*[#   5]+0.006*[#   7]+0.006*[#   8]
          
    |psi|^2 = 0.073
==== e(  11) =    11.70867 eV ==== 
     psi = 0.028*[#   1]+0.026*[#   3]+0.026*[#   4]+0.024*[#   5]+0.012*[#   7]
          +0.012*[#   8]
    |psi|^2 = 0.128
==== e(  12) =    12.80952 eV ==== 

    |psi|^2 = 0.001
==== e(  13) =    13.12488 eV ==== 
     psi = 0.038*[#   3]+0.038*[#   4]+0.037*[#   5]+0.035*[#   1]+0.010*[#   7]
          +0.010*[#   8]
    |psi|^2 = 0.168
==== e(  14) =    13.44186 eV ==== 

    |psi|^2 = 0.001
==== e(  15) =    13.65705 eV ==== 
     psi = 0.011*[#   3]+0.011*[#   4]+0.011*[#   5]+0.006*[#   1]+0.003*[#   7]
          +0.003*[#   8]
    |psi|^2 = 0.045
==== e(  16) =    14.02982 eV ==== 
     psi = 0.147*[#   5]+0.109*[#   3]+0.109*[#   4]+0.003*[#   1]+0.001*[#   7]
          +0.001*[#   8]
    |psi|^2 = 0.371

 k =   0.2833333333  0.5484827557  0.0000000000
==== e(   1) =   -17.67397 eV ==== 
     psi = 0.601*[#   5]+0.192*[#   3]+0.192*[#   4]+0.006*[#   1]+0.001*[#   7]
          +0.001*[#   8]
    |psi|^2 = 0.994
==== e(   2) =   -11.61433 eV ==== 
     psi = 0.310*[#   7]+0.310*[#   8]+0.147*[#   3]+0.147*[#   4]+0.071*[#   1]
          +0.004*[#   5]
    |psi|^2 = 0.987
==== e(   3) =   -10.47941 eV ==== 
     psi = 0.335*[#   7]+0.335*[#   8]+0.221*[#   1]+0.051*[#   3]+0.051*[#   4]
          +0.001*[#   5]
    |psi|^2 = 0.994
==== e(   4) =    -3.75345 eV ==== 
     psi = 0.966*[#   6]+0.026*[#   2]
    |psi|^2 = 0.992
==== e(   5) =     1.17176 eV ==== 
     psi = 0.966*[#   2]+0.025*[#   6]
    |psi|^2 = 0.991
==== e(   6) =     8.66664 eV ==== 
     psi = 0.002*[#   2]
    |psi|^2 = 0.003
==== e(   7) =     9.03748 eV ==== 
     psi = 0.288*[#   1]+0.050*[#   7]+0.050*[#   8]+0.013*[#   5]+0.011*[#   3]
          +0.011*[#   4]
    |psi|^2 = 0.424
==== e(   8) =    10.29549 eV ==== 
     psi = 0.125*[#   1]+0.055*[#   3]+0.055*[#   4]+0.038*[#   7]+0.038*[#   8]
          +0.010*[#   5]
    |psi|^2 = 0.321
==== e(   9) =    11.22670 eV ==== 

    |psi|^2 = 0.000
==== e(  10) =    11.36649 eV ==== 
     psi = 0.033*[#   1]+0.030*[#   3]+0.030*[#   4]+0.015*[#   5]+0.015*[#   7]
          +0.015*[#   8]
    |psi|^2 = 0.139
==== e(  11) =    11.74262 eV ==== 
     psi = 0.012*[#   1]+0.006*[#   3]+0.006*[#   4]+0.005*[#   7]+0.005*[#   8]
          +0.003*[#   5]
    |psi|^2 = 0.038
==== e(  12) =    12.67882 eV ==== 

    |psi|^2 = 0.001
==== e(  13) =    13.03156 eV ==== 
     psi = 0.025*[#   1]+0.014*[#   3]+0.014*[#   4]+0.011*[#   5]+0.009*[#   7]
          +0.009*[#   8]
    |psi|^2 = 0.081
==== e(  14) =    13.53610 eV ==== 

    |psi|^2 = 0.000
==== e(  15) =    13.54586 eV ==== 
     psi = 0.037*[#   5]+0.036*[#   3]+0.036*[#   4]+0.030*[#   1]+0.008*[#   7]
          +0.008*[#   8]
    |psi|^2 = 0.154
==== e(  16) =    14.03050 eV ==== 
     psi = 0.114*[#   5]+0.087*[#   3]+0.087*[#   4]+0.019*[#   1]+0.007*[#   7]
          +0.007*[#   8]
    |psi|^2 = 0.322

 k =   0.2833333333  0.5677277647  0.0000000000
==== e(   1) =   -17.65284 eV ==== 
     psi = 0.603*[#   5]+0.193*[#   3]+0.193*[#   4]+0.004*[#   1]
    |psi|^2 = 0.994
==== e(   2) =   -11.62181 eV ==== 
     psi = 0.309*[#   7]+0.309*[#   8]+0.149*[#   3]+0.149*[#   4]+0.068*[#   1]
          +0.002*[#   5]
    |psi|^2 = 0.987
==== e(   3) =   -10.51752 eV ==== 
     psi = 0.336*[#   7]+0.336*[#   8]+0.226*[#   1]+0.047*[#   3]+0.047*[#   4]
          +0.002*[#   5]
    |psi|^2 = 0.994
==== e(   4) =    -3.71737 eV ==== 
     psi = 0.974*[#   6]+0.018*[#   2]
    |psi|^2 = 0.992
==== e(   5) =     1.13852 eV ==== 
     psi = 0.974*[#   2]+0.017*[#   6]
    |psi|^2 = 0.991
==== e(   6) =     8.66708 eV ==== 
     psi = 0.002*[#   2]
    |psi|^2 = 0.003
==== e(   7) =     9.23727 eV ==== 
     psi = 0.364*[#   1]+0.064*[#   7]+0.064*[#   8]+0.009*[#   5]+0.005*[#   3]
          +0.005*[#   4]
    |psi|^2 = 0.512
==== e(   8) =    10.24834 eV ==== 
     psi = 0.063*[#   3]+0.063*[#   4]+0.020*[#   1]+0.017*[#   7]+0.017*[#   8]
          +0.014*[#   5]
    |psi|^2 = 0.193
==== e(   9) =    11.34724 eV ==== 
     psi = 0.068*[#   1]+0.026*[#   3]+0.026*[#   4]+0.023*[#   7]+0.023*[#   8]
          +0.012*[#   5]
    |psi|^2 = 0.177
==== e(  10) =    11.49963 eV ==== 

    |psi|^2 = 0.000
==== e(  11) =    12.11745 eV ==== 
     psi = 0.007*[#   3]+0.007*[#   4]+0.004*[#   1]+0.003*[#   7]+0.003*[#   8]
          +0.002*[#   5]
    |psi|^2 = 0.026
==== e(  12) =    12.41364 eV ==== 

    |psi|^2 = 0.000
==== e(  13) =    12.60955 eV ==== 
     psi = 0.007*[#   1]+0.005*[#   3]+0.005*[#   4]+0.003*[#   7]+0.003*[#   8]
          +0.001*[#   5]
    |psi|^2 = 0.023
==== e(  14) =    13.71729 eV ==== 
     psi = 0.072*[#   1]+0.028*[#   3]+0.028*[#   4]+0.025*[#   5]+0.020*[#   7]
          +0.020*[#   8]
    |psi|^2 = 0.194
==== e(  15) =    13.78785 eV ==== 

    |psi|^2 = 0.001
==== e(  16) =    13.94210 eV ==== 
     psi = 0.116*[#   5]+0.094*[#   3]+0.094*[#   4]+0.017*[#   1]+0.007*[#   7]
          +0.007*[#   8]
    |psi|^2 = 0.336

 k =   0.3000000000  0.5196152423  0.0000000000
==== e(   1) =   -17.71172 eV ==== 
     psi = 0.598*[#   5]+0.191*[#   3]+0.191*[#   4]+0.009*[#   1]+0.003*[#   7]
          +0.003*[#   8]
    |psi|^2 = 0.994
==== e(   2) =   -11.57346 eV ==== 
     psi = 0.309*[#   7]+0.309*[#   8]+0.146*[#   3]+0.146*[#   4]+0.068*[#   1]
          +0.008*[#   5]
    |psi|^2 = 0.988
==== e(   3) =   -10.44321 eV ==== 
     psi = 0.335*[#   7]+0.335*[#   8]+0.221*[#   1]+0.052*[#   3]+0.052*[#   4]
          
    |psi|^2 = 0.994
==== e(   4) =    -3.81797 eV ==== 
     psi = 0.952*[#   6]+0.040*[#   2]
    |psi|^2 = 0.992
==== e(   5) =     1.23786 eV ==== 
     psi = 0.952*[#   2]+0.039*[#   6]
    |psi|^2 = 0.991
==== e(   6) =     8.64126 eV ==== 
     psi = 0.002*[#   2]
    |psi|^2 = 0.002
==== e(   7) =     8.72876 eV ==== 
     psi = 0.216*[#   1]+0.036*[#   7]+0.036*[#   8]+0.017*[#   3]+0.017*[#   4]
          +0.016*[#   5]
    |psi|^2 = 0.339
==== e(   8) =    10.37716 eV ==== 
     psi = 0.235*[#   1]+0.060*[#   7]+0.060*[#   8]+0.040*[#   3]+0.040*[#   4]
          +0.001*[#   5]
    |psi|^2 = 0.437
==== e(   9) =    10.90229 eV ==== 

    |psi|^2 = 0.000
==== e(  10) =    11.10340 eV ==== 
     psi = 0.026*[#   3]+0.026*[#   4]+0.009*[#   5]+0.006*[#   7]+0.006*[#   8]
          
    |psi|^2 = 0.074
==== e(  11) =    11.76222 eV ==== 
     psi = 0.028*[#   3]+0.028*[#   4]+0.021*[#   5]+0.021*[#   1]+0.011*[#   7]
          +0.011*[#   8]
    |psi|^2 = 0.120
==== e(  12) =    12.87161 eV ==== 

    |psi|^2 = 0.001
==== e(  13) =    13.13499 eV ==== 
     psi = 0.043*[#   5]+0.040*[#   3]+0.040*[#   4]+0.030*[#   1]+0.007*[#   7]
          +0.007*[#   8]
    |psi|^2 = 0.166
==== e(  14) =    13.50921 eV ==== 

    |psi|^2 = 0.001
==== e(  15) =    13.78238 eV ==== 
     psi = 0.059*[#   5]+0.049*[#   3]+0.049*[#   4]+0.020*[#   1]+0.009*[#   7]
          +0.009*[#   8]
    |psi|^2 = 0.196
==== e(  16) =    14.04249 eV ==== 
     psi = 0.075*[#   5]+0.052*[#   3]+0.052*[#   4]+0.009*[#   1]+0.003*[#   7]
          +0.003*[#   8]
    |psi|^2 = 0.194

 k =   0.3000000000  0.5388602512  0.0000000000
==== e(   1) =   -17.66428 eV ==== 
     psi = 0.602*[#   5]+0.192*[#   3]+0.192*[#   4]+0.005*[#   1]+0.001*[#   7]
          +0.001*[#   8]
    |psi|^2 = 0.994
==== e(   2) =   -11.56583 eV ==== 
     psi = 0.307*[#   7]+0.307*[#   8]+0.158*[#   3]+0.158*[#   4]+0.054*[#   1]
          +0.004*[#   5]
    |psi|^2 = 0.987
==== e(   3) =   -10.55701 eV ==== 
     psi = 0.338*[#   7]+0.338*[#   8]+0.239*[#   1]+0.040*[#   3]+0.040*[#   4]
          
    |psi|^2 = 0.995
==== e(   4) =    -3.73794 eV ==== 
     psi = 0.969*[#   6]+0.023*[#   2]
    |psi|^2 = 0.992
==== e(   5) =     1.16958 eV ==== 
     psi = 0.970*[#   2]+0.022*[#   6]
    |psi|^2 = 0.992
==== e(   6) =     8.63514 eV ==== 
     psi = 0.001*[#   2]
    |psi|^2 = 0.001
==== e(   7) =     9.05013 eV ==== 
     psi = 0.276*[#   1]+0.048*[#   7]+0.048*[#   8]+0.011*[#   3]+0.011*[#   4]
          +0.011*[#   5]
    |psi|^2 = 0.406
==== e(   8) =    10.41641 eV ==== 
     psi = 0.160*[#   1]+0.050*[#   3]+0.050*[#   4]+0.046*[#   7]+0.046*[#   8]
          +0.004*[#   5]
    |psi|^2 = 0.356
==== e(   9) =    11.23302 eV ==== 

    |psi|^2 = 0.000
==== e(  10) =    11.42927 eV ==== 
     psi = 0.032*[#   3]+0.032*[#   4]+0.012*[#   1]+0.011*[#   7]+0.011*[#   8]
          +0.010*[#   5]
    |psi|^2 = 0.108
==== e(  11) =    11.74784 eV ==== 
     psi = 0.006*[#   1]+0.005*[#   3]+0.005*[#   4]+0.003*[#   7]+0.003*[#   8]
          +0.001*[#   5]
    |psi|^2 = 0.021
==== e(  12) =    12.92429 eV ==== 

    |psi|^2 = 0.001
==== e(  13) =    13.26467 eV ==== 
     psi = 0.059*[#   1]+0.035*[#   5]+0.031*[#   3]+0.031*[#   4]+0.014*[#   7]
          +0.014*[#   8]
    |psi|^2 = 0.184
==== e(  14) =    13.45138 eV ==== 

    |psi|^2 = 0.000
==== e(  15) =    13.57822 eV ==== 
     psi = 0.036*[#   5]+0.036*[#   3]+0.036*[#   4]+0.010*[#   1]+0.006*[#   7]
          +0.006*[#   8]
    |psi|^2 = 0.130
==== e(  16) =    14.02091 eV ==== 
     psi = 0.037*[#   5]+0.028*[#   3]+0.028*[#   4]+0.009*[#   1]+0.004*[#   7]
          +0.004*[#   8]
    |psi|^2 = 0.108

 k =   0.3000000000  0.5581052602  0.0000000000
==== e(   1) =   -17.63514 eV ==== 
     psi = 0.604*[#   5]+0.193*[#   3]+0.193*[#   4]+0.003*[#   1]
    |psi|^2 = 0.994
==== e(   2) =   -11.55757 eV ==== 
     psi = 0.304*[#   7]+0.304*[#   8]+0.166*[#   3]+0.166*[#   4]+0.043*[#   1]
          +0.002*[#   5]
    |psi|^2 = 0.986
==== e(   3) =   -10.62990 eV ==== 
     psi = 0.341*[#   7]+0.341*[#   8]+0.252*[#   1]+0.030*[#   3]+0.030*[#   4]
          
    |psi|^2 = 0.995
==== e(   4) =    -3.68789 eV ==== 
     psi = 0.980*[#   6]+0.012*[#   2]
    |psi|^2 = 0.992
==== e(   5) =     1.12742 eV ==== 
     psi = 0.981*[#   2]+0.011*[#   6]
    |psi|^2 = 0.993
==== e(   6) =     8.62446 eV ==== 

    |psi|^2 = 0.001
==== e(   7) =     9.29060 eV ==== 
     psi = 0.351*[#   1]+0.063*[#   7]+0.063*[#   8]+0.006*[#   5]+0.005*[#   3]
          +0.005*[#   4]
    |psi|^2 = 0.494
==== e(   8) =    10.43192 eV ==== 
     psi = 0.059*[#   1]+0.059*[#   3]+0.059*[#   4]+0.027*[#   7]+0.027*[#   8]
          +0.007*[#   5]
    |psi|^2 = 0.237
==== e(   9) =    11.39259 eV ==== 
     psi = 0.032*[#   1]+0.024*[#   3]+0.024*[#   4]+0.015*[#   7]+0.015*[#   8]
          +0.004*[#   5]
    |psi|^2 = 0.114
==== e(  10) =    11.56308 eV ==== 

    |psi|^2 = 0.000
==== e(  11) =    12.08988 eV ==== 
     psi = 0.005*[#   3]+0.005*[#   4]+0.003*[#   1]+0.002*[#   7]+0.002*[#   8]
          
    |psi|^2 = 0.016
==== e(  12) =    12.65998 eV ==== 

    |psi|^2 = 0.001
==== e(  13) =    13.01109 eV ==== 
     psi = 0.023*[#   1]+0.007*[#   7]+0.007*[#   8]+0.005*[#   3]+0.005*[#   4]
          +0.002*[#   5]
    |psi|^2 = 0.050
==== e(  14) =    13.59308 eV ==== 
     psi = 0.054*[#   1]+0.046*[#   5]+0.038*[#   3]+0.038*[#   4]+0.013*[#   7]
          +0.013*[#   8]
    |psi|^2 = 0.202
==== e(  15) =    13.60896 eV ==== 

    |psi|^2 = 0.001
==== e(  16) =    13.96943 eV ==== 
     psi = 0.050*[#   5]+0.049*[#   3]+0.049*[#   4]+0.026*[#   1]+0.012*[#   7]
          +0.012*[#   8]
    |psi|^2 = 0.198

 k =   0.3000000000  0.5773502692  0.0000000000
==== e(   1) =   -17.62537 eV ==== 
     psi = 0.605*[#   5]+0.193*[#   3]+0.193*[#   4]+0.002*[#   1]
    |psi|^2 = 0.994
==== e(   2) =   -11.55407 eV ==== 
     psi = 0.303*[#   7]+0.303*[#   8]+0.170*[#   3]+0.170*[#   4]+0.039*[#   1]
          
    |psi|^2 = 0.986
==== e(   3) =   -10.65518 eV ==== 
     psi = 0.342*[#   7]+0.342*[#   8]+0.258*[#   1]+0.027*[#   3]+0.027*[#   4]
          
    |psi|^2 = 0.995
==== e(   4) =    -3.67085 eV ==== 
     psi = 0.984*[#   6]+0.008*[#   2]
    |psi|^2 = 0.992
==== e(   5) =     1.11317 eV ==== 
     psi = 0.985*[#   2]+0.008*[#   6]
    |psi|^2 = 0.993
==== e(   6) =     8.61980 eV ==== 

    |psi|^2 = 0.001
==== e(   7) =     9.38388 eV ==== 
     psi = 0.393*[#   1]+0.071*[#   7]+0.071*[#   8]+0.004*[#   5]+0.002*[#   3]
          +0.002*[#   4]
    |psi|^2 = 0.543
==== e(   8) =    10.43596 eV ==== 
     psi = 0.064*[#   3]+0.064*[#   4]+0.015*[#   7]+0.015*[#   8]+0.009*[#   5]
          
    |psi|^2 = 0.167
==== e(   9) =    11.33430 eV ==== 
     psi = 0.044*[#   1]+0.021*[#   3]+0.021*[#   4]+0.016*[#   7]+0.016*[#   8]
          +0.002*[#   5]
    |psi|^2 = 0.120
==== e(  10) =    11.74566 eV ==== 

    |psi|^2 = 0.001
==== e(  11) =    12.47377 eV ==== 
     psi = 0.017*[#   1]+0.008*[#   3]+0.008*[#   4]+0.006*[#   7]+0.006*[#   8]
          
    |psi|^2 = 0.046
==== e(  12) =    12.48250 eV ==== 

    |psi|^2 = 0.000
==== e(  13) =    12.63537 eV ==== 
     psi = 0.002*[#   3]+0.002*[#   4]
    |psi|^2 = 0.005
==== e(  14) =    13.64816 eV ==== 
     psi = 0.071*[#   1]+0.027*[#   5]+0.019*[#   3]+0.019*[#   4]+0.016*[#   7]
          +0.016*[#   8]
    |psi|^2 = 0.169
==== e(  15) =    13.67852 eV ==== 

    |psi|^2 = 0.001
==== e(  16) =    13.96780 eV ==== 
     psi = 0.068*[#   3]+0.068*[#   4]+0.068*[#   5]+0.034*[#   1]+0.017*[#   7]
          +0.017*[#   8]
    |psi|^2 = 0.273

 k =   0.3166666667  0.5484827557  0.0000000000
==== e(   1) =   -17.62930 eV ==== 
     psi = 0.605*[#   5]+0.193*[#   3]+0.193*[#   4]+0.002*[#   1]
    |psi|^2 = 0.994
==== e(   2) =   -11.53202 eV ==== 
     psi = 0.302*[#   7]+0.302*[#   8]+0.174*[#   3]+0.174*[#   4]+0.031*[#   1]
          +0.002*[#   5]
    |psi|^2 = 0.986
==== e(   3) =   -10.67193 eV ==== 
     psi = 0.343*[#   7]+0.343*[#   8]+0.265*[#   1]+0.022*[#   3]+0.022*[#   4]
          
    |psi|^2 = 0.995
==== e(   4) =    -3.67850 eV ==== 
     psi = 0.982*[#   6]+0.010*[#   2]
    |psi|^2 = 0.992
==== e(   5) =     1.12361 eV ==== 
     psi = 0.984*[#   2]+0.010*[#   6]
    |psi|^2 = 0.993
==== e(   6) =     8.60966 eV ==== 

    |psi|^2 = 0.001
==== e(   7) =     9.30543 eV ==== 
     psi = 0.346*[#   1]+0.062*[#   7]+0.062*[#   8]+0.005*[#   3]+0.005*[#   4]
          +0.005*[#   5]
    |psi|^2 = 0.486
==== e(   8) =    10.50926 eV ==== 
     psi = 0.081*[#   1]+0.057*[#   3]+0.057*[#   4]+0.032*[#   7]+0.032*[#   8]
          +0.003*[#   5]
    |psi|^2 = 0.262
==== e(   9) =    11.39837 eV ==== 
     psi = 0.025*[#   3]+0.025*[#   4]+0.010*[#   1]+0.010*[#   7]+0.010*[#   8]
          +0.001*[#   5]
    |psi|^2 = 0.080
==== e(  10) =    11.57951 eV ==== 

    |psi|^2 = 0.000
==== e(  11) =    12.07524 eV ==== 
     psi = 0.004*[#   3]+0.004*[#   4]+0.003*[#   1]+0.001*[#   5]+0.001*[#   7]
          +0.001*[#   8]
    |psi|^2 = 0.014
==== e(  12) =    12.80762 eV ==== 

    |psi|^2 = 0.001
==== e(  13) =    13.27078 eV ==== 
     psi = 0.073*[#   1]+0.017*[#   7]+0.017*[#   8]+0.005*[#   5]+0.003*[#   3]
          +0.003*[#   4]
    |psi|^2 = 0.116
==== e(  14) =    13.47576 eV ==== 

    |psi|^2 = 0.000
==== e(  15) =    13.48153 eV ==== 
     psi = 0.034*[#   3]+0.034*[#   4]+0.030*[#   5]+0.006*[#   7]+0.006*[#   8]
          +0.002*[#   1]
    |psi|^2 = 0.114
==== e(  16) =    13.93718 eV ==== 
     psi = 0.024*[#   3]+0.024*[#   4]+0.024*[#   5]+0.022*[#   1]+0.006*[#   7]
          +0.006*[#   8]
    |psi|^2 = 0.107

 k =   0.3166666667  0.5677277647  0.0000000000
==== e(   1) =   -17.61157 eV ==== 
     psi = 0.606*[#   5]+0.194*[#   3]+0.194*[#   4]
    |psi|^2 = 0.994
==== e(   2) =   -11.50929 eV ==== 
     psi = 0.299*[#   7]+0.299*[#   8]+0.187*[#   3]+0.187*[#   4]+0.014*[#   1]
          
    |psi|^2 = 0.985
==== e(   3) =   -10.73523 eV ==== 
     psi = 0.346*[#   7]+0.346*[#   8]+0.284*[#   1]+0.010*[#   3]+0.010*[#   4]
          
    |psi|^2 = 0.996
==== e(   4) =    -3.64797 eV ==== 
     psi = 0.989*[#   6]+0.003*[#   2]
    |psi|^2 = 0.992
==== e(   5) =     1.10020 eV ==== 
     psi = 0.991*[#   2]+0.003*[#   6]
    |psi|^2 = 0.994
==== e(   6) =     8.59405 eV ==== 

    |psi|^2 = 0.000
==== e(   7) =     9.44930 eV ==== 
     psi = 0.401*[#   1]+0.073*[#   7]+0.073*[#   8]+0.002*[#   5]+0.001*[#   3]
          +0.001*[#   4]
    |psi|^2 = 0.552
==== e(   8) =    10.59769 eV ==== 
     psi = 0.065*[#   3]+0.065*[#   4]+0.020*[#   7]+0.020*[#   8]+0.013*[#   1]
          +0.003*[#   5]
    |psi|^2 = 0.187
==== e(   9) =    11.26199 eV ==== 
     psi = 0.017*[#   3]+0.017*[#   4]+0.011*[#   1]+0.007*[#   7]+0.007*[#   8]
          
    |psi|^2 = 0.058
==== e(  10) =    11.87538 eV ==== 

    |psi|^2 = 0.001
==== e(  11) =    12.51001 eV ==== 
     psi = 0.016*[#   1]+0.005*[#   7]+0.005*[#   8]+0.005*[#   3]+0.005*[#   4]
          
    |psi|^2 = 0.036
==== e(  12) =    12.59338 eV ==== 

    |psi|^2 = 0.001
==== e(  13) =    12.98276 eV ==== 
     psi = 0.023*[#   1]+0.007*[#   7]+0.007*[#   8]+0.004*[#   3]+0.004*[#   4]
          
    |psi|^2 = 0.045
==== e(  14) =    13.41682 eV ==== 
     psi = 0.030*[#   1]+0.010*[#   3]+0.010*[#   4]+0.009*[#   7]+0.009*[#   8]
          +0.008*[#   5]
    |psi|^2 = 0.075
==== e(  15) =    13.46272 eV ==== 

    |psi|^2 = 0.000
==== e(  16) =    13.99493 eV ==== 
     psi = 0.070*[#   1]+0.020*[#   7]+0.020*[#   8]+0.019*[#   3]+0.019*[#   4]
          +0.015*[#   5]
    |psi|^2 = 0.161

 k =   0.3333333333  0.5773502692  0.0000000000
==== e(   1) =   -17.60389 eV ==== 
     psi = 0.607*[#   5]+0.194*[#   3]+0.194*[#   4]
    |psi|^2 = 0.994
==== e(   2) =   -11.48957 eV ==== 
     psi = 0.296*[#   7]+0.296*[#   8]+0.196*[#   3]+0.196*[#   4]
    |psi|^2 = 0.985
==== e(   3) =   -10.77474 eV ==== 
     psi = 0.349*[#   7]+0.349*[#   8]+0.298*[#   1]
    |psi|^2 = 0.996
==== e(   4) =    -3.63518 eV ==== 
     psi = 0.992*[#   6]
    |psi|^2 = 0.992
==== e(   5) =     1.09084 eV ==== 
     psi = 0.994*[#   2]
    |psi|^2 = 0.994
==== e(   6) =     8.58312 eV ==== 

    |psi|^2 = 0.000
==== e(   7) =     9.50118 eV ==== 
     psi = 0.418*[#   1]+0.077*[#   7]+0.077*[#   8]
    |psi|^2 = 0.572
==== e(   8) =    10.70290 eV ==== 
     psi = 0.074*[#   3]+0.074*[#   4]+0.021*[#   7]+0.021*[#   8]
    |psi|^2 = 0.190
==== e(   9) =    11.16135 eV ==== 
     psi = 0.008*[#   3]+0.008*[#   4]+0.002*[#   5]
    |psi|^2 = 0.018
==== e(  10) =    12.03519 eV ==== 
     psi = 0.001*[#   6]
    |psi|^2 = 0.001
==== e(  11) =    12.53162 eV ==== 

    |psi|^2 = 0.001
==== e(  12) =    12.80329 eV ==== 
     psi = 0.058*[#   1]+0.013*[#   7]+0.013*[#   8]
    |psi|^2 = 0.083
==== e(  13) =    12.99186 eV ==== 
     psi = 0.013*[#   3]+0.013*[#   4]+0.005*[#   7]+0.005*[#   8]
    |psi|^2 = 0.036
==== e(  14) =    13.15596 eV ==== 

    |psi|^2 = 0.000
==== e(  15) =    13.37410 eV ==== 

    |psi|^2 = 0.000
==== e(  16) =    14.00748 eV ==== 
     psi = 0.107*[#   1]+0.026*[#   7]+0.026*[#   8]
    |psi|^2 = 0.159

Lowdin Charges: 

     Atom #   1: total charge =   2.5293, s =  0.6177, 
     Atom #   1: total charge =   2.5293, p =  1.9115, pz=  0.5194, px=  0.6961, py=  0.6961, 
     Atom #   2: total charge =   5.4038, s =  1.1765, 
     Atom #   2: total charge =   5.4038, p =  4.2273, pz=  1.4589, px=  1.3842, py=  1.3842, 
     Spilling Parameter:   0.0084

     PROJWFC      :     13.03s CPU     14.48s WALL


   This run was terminated on:  14:27:24  16Apr2024            

=------------------------------------------------------------------------------=
   JOB DONE.
=------------------------------------------------------------------------------=
