
     Program BANDS v.7.2 starts on 18Apr2024 at 10:33:53 

     This program is part of the open-source Quantum ESPRESSO suite
     for quantum simulation of materials; please cite
         "P. Giannozzi et al., J. Phys.:Condens. Matter 21 395502 (2009);
         "P. Giannozzi et al., J. Phys.:Condens. Matter 29 465901 (2017);
         "P. Giannozzi et al., J. Chem. Phys. 152 154105 (2020);
          URL http://www.quantum-espresso.org", 
     in publications or presentations arising from this work. More details at
     http://www.quantum-espresso.org/quote

     Parallel version (MPI & OpenMP), running on       8 processor cores
     Number of MPI processes:                 8
     Threads/MPI process:                     1

     MPI processes distributed on     1 nodes
     R & G space division:  proc/nbgrp/npool/nimage =       8
     0 MiB available memory on the printing compute node when the environment starts


     Reading xml data from directory:

     ./tmp/MoS2_1L_pbe_vdW_wsoc.save/

     IMPORTANT: XC functional enforced from input :
     Exchange-correlation= PBE
                           (   1   4   3   4   0   0   0)
     Any further DFT definition will be discarded
     Please, verify this is what you really want


     Parallelization info
     --------------------
     sticks:   dense  smooth     PW     G-vecs:    dense   smooth      PW
     Min          85      85     24                14691    14691    2318
     Max          86      86     25                14716    14716    2353
     Sum         685     685    199               117663   117663   18769

     Using Slab Decomposition

     Reading collected, re-writing distributed wavefunctions
     high-symmetry point:  0.0000 0.0000 0.0000   x coordinate   0.0000
     high-symmetry point: -0.3333 0.5774 0.0000   x coordinate   0.6667
     high-symmetry point:  0.0000 0.5774 0.0000   x coordinate   1.0000
     high-symmetry point:  0.0000 0.0000 0.0000   x coordinate   1.5773

     Plottable bands (eV) written to file Bande_MoS2_1L_pbe_vdW_wsoc.dat.gnu
     Bands written to file Bande_MoS2_1L_pbe_vdW_wsoc.dat

 **************************************************************************

                    xk=(   0.00000,   0.00000,   0.00000  )

     double point group D_3h (-62m)
     there are  9 classes and  3 irreducible representations
     the character table:

       E     -E    2C3   -2C3   3C2'  s_h  2S3   -2S3   3s_v
                               -3C2' -s_h'             -3s_v
G_7    2.00 -2.00  1.00 -1.00  0.00  0.00  1.73 -1.73  0.00
G_8    2.00 -2.00  1.00 -1.00  0.00  0.00 -1.73  1.73  0.00
G_9    2.00 -2.00 -2.00  2.00  0.00  0.00  0.00  0.00  0.00

     the symmetry operations in each class and the name of the first element:

     E             1
                                                                 
     -E           -1
                                                                 
     2C3           3    4
                                                                 
     -2C3         -3   -4
                                                                 
      3C2'-3C2'    2   -6    5   -2   -5    6
                                                                 
      s_h -s_h'    7   -7
                                                                 
     2S3           9   10
                                                                 
     -2S3         -9  -10
                                                                 
      3s_v-3s_v    8   -8  -11  -12   11   12
                                                                 

     Band symmetry, D_3h (-62m) double point group:

     e(  1 -  2) =    -62.80700  eV     2   --> G_7            
     e(  3 -  4) =    -38.53294  eV     2   --> G_8            
     e(  5 -  6) =    -36.10662  eV     2   --> G_8            
     e(  7 -  8) =    -35.94557  eV     2   --> G_9            
     e(  9 - 10) =    -16.08257  eV     2   --> G_7            
     e( 11 - 12) =    -14.79272  eV     2   --> G_8            
     e( 13 - 14) =     -7.60103  eV     2   --> G_7            
     e( 15 - 16) =     -4.57549  eV     2   --> G_9            
     e( 17 - 18) =     -4.50983  eV     2   --> G_8            
     e( 19 - 20) =     -3.79177  eV     2   --> G_8            
     e( 21 - 22) =     -3.47584  eV     2   --> G_7            
     e( 23 - 24) =     -3.39081  eV     2   --> G_9            
     e( 25 - 26) =     -2.02296  eV     2   --> G_7            
     e( 27 - 28) =      0.77910  eV     2   --> G_7            
     e( 29 - 30) =      0.85812  eV     2   --> G_9            
     e( 31 - 32) =      1.05640  eV     2   --> G_8            
     e( 33 - 34) =      1.05792  eV     2   --> G_9            
     e( 35 - 36) =      3.44432  eV     2   --> G_7            
     e( 37 - 38) =      3.60532  eV     2   --> G_8            
     e( 39 - 40) =      4.09187  eV     2   --> G_7            
     e( 41 - 42) =      4.43220  eV     2   --> G_7            
     e( 43 - 44) =      4.69089  eV     2   --> G_8            
     e( 45 - 46) =      5.36480  eV     2   --> G_7            
     e( 47 - 48) =      6.28227  eV     2   --> G_8            
     e( 49 - 50) =      7.09310  eV     2   --> G_8            

 **************************************************************************

 **************************************************************************

                    xk=(  -0.01587,   0.02749,   0.00000  )

     double point group C_s (m)    
     there are  4 classes and  2 irreducible representations
     the character table:

       E     -E    s     -s   
                              
G_3    1.00 -1.00  0.00  0.00
G_4    1.00 -1.00  0.00  0.00

     imaginary part

       E     -E    s     -s   
                              
G_3    0.00  0.00  1.00 -1.00
G_4    0.00  0.00 -1.00  1.00

     the symmetry operations in each class and the name of the first element:

     E             1
                                                                 
     -E           -1
                                                                 
     s             2
                                                                 
     -s           -2
                                                                 

     Band symmetry, C_s (m)     double point group:

     e(  1 -  2) =    -62.80671  eV     2   --> G_3            
     e(  1 -  2) =    -62.80671  eV     2   --> G_4            
     e(  3 -  4) =    -38.53369  eV     2   --> G_3            
     e(  3 -  4) =    -38.53369  eV     2   --> G_4            
     e(  5 -  6) =    -36.10692  eV     2   --> G_3            
     e(  5 -  6) =    -36.10692  eV     2   --> G_4            
     e(  7 -  8) =    -35.94751  eV     2   --> G_3            
     e(  7 -  8) =    -35.94751  eV     2   --> G_4            
     e(  9 - 10) =    -16.07114  eV     2   --> G_3            
     e(  9 - 10) =    -16.07114  eV     2   --> G_4            
     e( 11 - 12) =    -14.78793  eV     2   --> G_3            
     e( 11 - 12) =    -14.78793  eV     2   --> G_4            
     e( 13 - 14) =     -7.58768  eV     2   --> G_3            
     e( 13 - 14) =     -7.58768  eV     2   --> G_4            
     e( 15 - 15) =     -4.58889  eV     1   --> G_4            
     e( 16 - 16) =     -4.58731  eV     1   --> G_3            
     e( 17 - 17) =     -4.51297  eV     1   --> G_3            
     e( 18 - 18) =     -4.51137  eV     1   --> G_4            
     e( 19 - 19) =     -3.87718  eV     1   --> G_4            
     e( 20 - 20) =     -3.87705  eV     1   --> G_3            
     e( 21 - 21) =     -3.46797  eV     1   --> G_3            
     e( 22 - 22) =     -3.46479  eV     1   --> G_4            
     e( 23 - 23) =     -3.35217  eV     1   --> G_4            
     e( 24 - 24) =     -3.34901  eV     1   --> G_3            
     e( 25 - 26) =     -2.02728  eV     2   --> G_3            
     e( 25 - 26) =     -2.02728  eV     2   --> G_4            
     e( 27 - 27) =      0.77350  eV     1   --> G_3            
     e( 28 - 28) =      0.77782  eV     1   --> G_4            
     e( 29 - 29) =      0.86002  eV     1   --> G_4            
     e( 30 - 30) =      0.86364  eV     1   --> G_3            
     e( 31 - 31) =      1.01917  eV     1   --> G_4            
     e( 32 - 32) =      1.02459  eV     1   --> G_3            
     e( 33 - 33) =      1.04163  eV     1   --> G_3            
     e( 34 - 34) =      1.04658  eV     1   --> G_4            
     e( 35 - 36) =      3.46692  eV     2   --> G_3            
     e( 35 - 36) =      3.46692  eV     2   --> G_4            
     e( 37 - 38) =      3.62035  eV     2   --> G_3            
     e( 37 - 38) =      3.62035  eV     2   --> G_4            
     e( 39 - 40) =      4.11237  eV     2   --> G_3            
     e( 39 - 40) =      4.11237  eV     2   --> G_4            
     e( 41 - 42) =      4.47847  eV     2   --> G_3            
     e( 41 - 42) =      4.47847  eV     2   --> G_4            
     e( 43 - 44) =      4.70575  eV     2   --> G_3            
     e( 43 - 44) =      4.70575  eV     2   --> G_4            
     e( 45 - 46) =      5.38112  eV     2   --> G_3            
     e( 45 - 46) =      5.38112  eV     2   --> G_4            
     e( 47 - 48) =      6.29654  eV     2   --> G_3            
     e( 47 - 48) =      6.29654  eV     2   --> G_4            
     e( 49 - 50) =      7.14845  eV     2   --> G_3            
     e( 49 - 50) =      7.14845  eV     2   --> G_4            

 **************************************************************************

 **************************************************************************

                    xk=(  -0.03175,   0.05499,   0.00000  )

     Band symmetry, C_s (m)     double point group:

     e(  1 -  2) =    -62.80583  eV     2   --> G_3            
     e(  1 -  2) =    -62.80583  eV     2   --> G_4            
     e(  3 -  4) =    -38.53606  eV     2   --> G_3            
     e(  3 -  4) =    -38.53606  eV     2   --> G_4            
     e(  5 -  6) =    -36.10794  eV     2   --> G_3            
     e(  5 -  6) =    -36.10794  eV     2   --> G_4            
     e(  7 -  7) =    -35.95338  eV     1   --> G_3            
     e(  8 -  8) =    -35.95322  eV     1   --> G_4            
     e(  9 -  9) =    -16.03707  eV     1   --> G_4            
     e( 10 - 10) =    -16.03696  eV     1   --> G_3            
     e( 11 - 12) =    -14.77365  eV     2   --> G_3            
     e( 11 - 12) =    -14.77365  eV     2   --> G_4            
     e( 13 - 13) =     -7.54820  eV     1   --> G_4            
     e( 14 - 14) =     -7.54807  eV     1   --> G_3            
     e( 15 - 15) =     -4.65682  eV     1   --> G_4            
     e( 16 - 16) =     -4.65126  eV     1   --> G_3            
     e( 17 - 17) =     -4.49184  eV     1   --> G_3            
     e( 18 - 18) =     -4.48630  eV     1   --> G_4            
     e( 19 - 19) =     -4.04721  eV     1   --> G_3            
     e( 20 - 20) =     -4.04690  eV     1   --> G_4            
     e( 21 - 21) =     -3.51815  eV     1   --> G_3            
     e( 22 - 22) =     -3.51078  eV     1   --> G_4            
     e( 23 - 23) =     -3.24352  eV     1   --> G_4            
     e( 24 - 24) =     -3.23513  eV     1   --> G_3            
     e( 25 - 25) =     -2.04147  eV     1   --> G_4            
     e( 26 - 26) =     -2.04137  eV     1   --> G_3            
     e( 27 - 27) =      0.73063  eV     1   --> G_3            
     e( 28 - 28) =      0.74648  eV     1   --> G_4            
     e( 29 - 29) =      0.88939  eV     1   --> G_3            
     e( 30 - 30) =      0.88990  eV     1   --> G_4            
     e( 31 - 31) =      0.92757  eV     1   --> G_4            
     e( 32 - 32) =      0.94801  eV     1   --> G_3            
     e( 33 - 33) =      1.00459  eV     1   --> G_3            
     e( 34 - 34) =      1.01031  eV     1   --> G_4            
     e( 35 - 35) =      3.52966  eV     1   --> G_4            
     e( 36 - 36) =      3.52987  eV     1   --> G_3            
     e( 37 - 38) =      3.66527  eV     2   --> G_3            
     e( 37 - 38) =      3.66527  eV     2   --> G_4            
     e( 39 - 40) =      4.16905  eV     2   --> G_3            
     e( 39 - 40) =      4.16905  eV     2   --> G_4            
     e( 41 - 41) =      4.61813  eV     1   --> G_4            
     e( 42 - 42) =      4.61851  eV     1   --> G_3            
     e( 43 - 44) =      4.75024  eV     2   --> G_3            
     e( 43 - 44) =      4.75024  eV     2   --> G_4            
     e( 45 - 46) =      5.43039  eV     2   --> G_3            
     e( 45 - 46) =      5.43039  eV     2   --> G_4            
     e( 47 - 48) =      6.33923  eV     2   --> G_3            
     e( 47 - 48) =      6.33923  eV     2   --> G_4            
     e( 49 - 50) =      7.20746  eV     2   --> G_3            
     e( 49 - 50) =      7.20746  eV     2   --> G_4            

 **************************************************************************

 **************************************************************************

                    xk=(  -0.04762,   0.08248,   0.00000  )

     Band symmetry, C_s (m)     double point group:

     e(  1 -  2) =    -62.80441  eV     2   --> G_3            
     e(  1 -  2) =    -62.80441  eV     2   --> G_4            
     e(  3 -  3) =    -38.53994  eV     1   --> G_4            
     e(  4 -  4) =    -38.53971  eV     1   --> G_3            
     e(  5 -  5) =    -36.10972  eV     1   --> G_4            
     e(  6 -  6) =    -36.10953  eV     1   --> G_3            
     e(  7 -  7) =    -35.96283  eV     1   --> G_3            
     e(  8 -  8) =    -35.96231  eV     1   --> G_4            
     e(  9 -  9) =    -15.98098  eV     1   --> G_4            
     e( 10 - 10) =    -15.98059  eV     1   --> G_3            
     e( 11 - 12) =    -14.75011  eV     2   --> G_3            
     e( 11 - 12) =    -14.75011  eV     2   --> G_4            
     e( 13 - 13) =     -7.48434  eV     1   --> G_4            
     e( 14 - 14) =     -7.48389  eV     1   --> G_3            
     e( 15 - 15) =     -4.77693  eV     1   --> G_4            
     e( 16 - 16) =     -4.76849  eV     1   --> G_3            
     e( 17 - 17) =     -4.43962  eV     1   --> G_3            
     e( 18 - 18) =     -4.43268  eV     1   --> G_4            
     e( 19 - 19) =     -4.24021  eV     1   --> G_3            
     e( 20 - 20) =     -4.23654  eV     1   --> G_4            
     e( 21 - 21) =     -3.61646  eV     1   --> G_3            
     e( 22 - 22) =     -3.60704  eV     1   --> G_4            
     e( 23 - 23) =     -3.13353  eV     1   --> G_4            
     e( 24 - 24) =     -3.11984  eV     1   --> G_3            
     e( 25 - 25) =     -2.06904  eV     1   --> G_4            
     e( 26 - 26) =     -2.06855  eV     1   --> G_3            
     e( 27 - 27) =      0.65979  eV     1   --> G_3            
     e( 28 - 28) =      0.68044  eV     1   --> G_4            
     e( 29 - 29) =      0.77608  eV     1   --> G_3            
     e( 30 - 30) =      0.77793  eV     1   --> G_4            
     e( 31 - 31) =      0.92275  eV     1   --> G_3            
     e( 32 - 32) =      0.94480  eV     1   --> G_4            
     e( 33 - 33) =      0.99581  eV     1   --> G_4            
     e( 34 - 34) =      1.03542  eV     1   --> G_3            
     e( 35 - 35) =      3.62312  eV     1   --> G_4            
     e( 36 - 36) =      3.62364  eV     1   --> G_3            
     e( 37 - 38) =      3.73964  eV     2   --> G_3            
     e( 37 - 38) =      3.73964  eV     2   --> G_4            
     e( 39 - 39) =      4.25469  eV     1   --> G_4            
     e( 40 - 40) =      4.25484  eV     1   --> G_3            
     e( 41 - 42) =      4.82401  eV     2   --> G_3            
     e( 41 - 42) =      4.82401  eV     2   --> G_4            
     e( 43 - 43) =      4.84558  eV     1   --> G_4            
     e( 44 - 44) =      4.84667  eV     1   --> G_3            
     e( 45 - 45) =      5.51432  eV     1   --> G_4            
     e( 46 - 46) =      5.51448  eV     1   --> G_3            
     e( 47 - 48) =      6.40994  eV     2   --> G_3            
     e( 47 - 48) =      6.40994  eV     2   --> G_4            
     e( 49 - 50) =      7.27121  eV     2   --> G_3            
     e( 49 - 50) =      7.27121  eV     2   --> G_4            

 **************************************************************************

 **************************************************************************

                    xk=(  -0.06349,   0.10997,   0.00000  )

     Band symmetry, C_s (m)     double point group:

     e(  1 -  2) =    -62.80248  eV     2   --> G_3            
     e(  1 -  2) =    -62.80248  eV     2   --> G_4            
     e(  3 -  3) =    -38.54533  eV     1   --> G_4            
     e(  4 -  4) =    -38.54480  eV     1   --> G_3            
     e(  5 -  5) =    -36.11245  eV     1   --> G_4            
     e(  6 -  6) =    -36.11203  eV     1   --> G_3            
     e(  7 -  7) =    -35.97544  eV     1   --> G_3            
     e(  8 -  8) =    -35.97425  eV     1   --> G_4            
     e(  9 -  9) =    -15.90384  eV     1   --> G_4            
     e( 10 - 10) =    -15.90291  eV     1   --> G_3            
     e( 11 - 12) =    -14.71771  eV     2   --> G_3            
     e( 11 - 12) =    -14.71771  eV     2   --> G_4            
     e( 13 - 13) =     -7.39914  eV     1   --> G_4            
     e( 14 - 14) =     -7.39803  eV     1   --> G_3            
     e( 15 - 15) =     -4.93285  eV     1   --> G_4            
     e( 16 - 16) =     -4.92238  eV     1   --> G_3            
     e( 17 - 17) =     -4.44850  eV     1   --> G_4            
     e( 18 - 18) =     -4.43904  eV     1   --> G_3            
     e( 19 - 19) =     -4.36410  eV     1   --> G_3            
     e( 20 - 20) =     -4.33817  eV     1   --> G_4            
     e( 21 - 21) =     -3.75697  eV     1   --> G_3            
     e( 22 - 22) =     -3.74751  eV     1   --> G_4            
     e( 23 - 23) =     -3.04337  eV     1   --> G_4            
     e( 24 - 24) =     -3.02419  eV     1   --> G_3            
     e( 25 - 25) =     -2.11521  eV     1   --> G_4            
     e( 26 - 26) =     -2.11360  eV     1   --> G_3            
     e( 27 - 27) =      0.58261  eV     1   --> G_4            
     e( 28 - 28) =      0.58486  eV     1   --> G_3            
     e( 29 - 29) =      0.61922  eV     1   --> G_3            
     e( 30 - 30) =      0.65090  eV     1   --> G_4            
     e( 31 - 31) =      0.84142  eV     1   --> G_3            
     e( 32 - 32) =      0.86629  eV     1   --> G_4            
     e( 33 - 33) =      1.11905  eV     1   --> G_4            
     e( 34 - 34) =      1.16309  eV     1   --> G_3            
     e( 35 - 35) =      3.74105  eV     1   --> G_4            
     e( 36 - 36) =      3.74197  eV     1   --> G_3            
     e( 37 - 38) =      3.84288  eV     2   --> G_3            
     e( 37 - 38) =      3.84288  eV     2   --> G_4            
     e( 39 - 39) =      4.36667  eV     1   --> G_4            
     e( 40 - 40) =      4.36692  eV     1   --> G_3            
     e( 41 - 42) =      4.92720  eV     2   --> G_3            
     e( 41 - 42) =      4.92720  eV     2   --> G_4            
     e( 43 - 43) =      5.13885  eV     1   --> G_4            
     e( 44 - 44) =      5.14107  eV     1   --> G_3            
     e( 45 - 45) =      5.63944  eV     1   --> G_4            
     e( 46 - 46) =      5.63988  eV     1   --> G_3            
     e( 47 - 48) =      6.50799  eV     2   --> G_3            
     e( 47 - 48) =      6.50799  eV     2   --> G_4            
     e( 49 - 49) =      7.35590  eV     1   --> G_4            
     e( 50 - 50) =      7.35608  eV     1   --> G_3            

 **************************************************************************

 **************************************************************************

                    xk=(  -0.07936,   0.13746,   0.00000  )

     Band symmetry, C_s (m)     double point group:

     e(  1 -  2) =    -62.80009  eV     2   --> G_3            
     e(  1 -  2) =    -62.80009  eV     2   --> G_4            
     e(  3 -  3) =    -38.55209  eV     1   --> G_4            
     e(  4 -  4) =    -38.55108  eV     1   --> G_3            
     e(  5 -  5) =    -36.11632  eV     1   --> G_4            
     e(  6 -  6) =    -36.11555  eV     1   --> G_3            
     e(  7 -  7) =    -35.99046  eV     1   --> G_3            
     e(  8 -  8) =    -35.98822  eV     1   --> G_4            
     e(  9 -  9) =    -15.80700  eV     1   --> G_4            
     e( 10 - 10) =    -15.80521  eV     1   --> G_3            
     e( 11 - 11) =    -14.67700  eV     1   --> G_3            
     e( 12 - 12) =    -14.67684  eV     1   --> G_4            
     e( 13 - 13) =     -7.29720  eV     1   --> G_4            
     e( 14 - 14) =     -7.29493  eV     1   --> G_3            
     e( 15 - 15) =     -5.11070  eV     1   --> G_4            
     e( 16 - 16) =     -5.09916  eV     1   --> G_3            
     e( 17 - 17) =     -4.63369  eV     1   --> G_4            
     e( 18 - 18) =     -4.63328  eV     1   --> G_3            
     e( 19 - 19) =     -4.27286  eV     1   --> G_3            
     e( 20 - 20) =     -4.24852  eV     1   --> G_4            
     e( 21 - 21) =     -3.93711  eV     1   --> G_3            
     e( 22 - 22) =     -3.92980  eV     1   --> G_4            
     e( 23 - 23) =     -2.97765  eV     1   --> G_4            
     e( 24 - 24) =     -2.95331  eV     1   --> G_3            
     e( 25 - 25) =     -2.18547  eV     1   --> G_4            
     e( 26 - 26) =     -2.18130  eV     1   --> G_3            
     e( 27 - 27) =      0.44290  eV     1   --> G_4            
     e( 28 - 28) =      0.45837  eV     1   --> G_3            
     e( 29 - 29) =      0.52806  eV     1   --> G_3            
     e( 30 - 30) =      0.58162  eV     1   --> G_4            
     e( 31 - 31) =      0.74575  eV     1   --> G_3            
     e( 32 - 32) =      0.77295  eV     1   --> G_4            
     e( 33 - 33) =      1.27244  eV     1   --> G_4            
     e( 34 - 34) =      1.32047  eV     1   --> G_3            
     e( 35 - 35) =      3.88125  eV     1   --> G_4            
     e( 36 - 36) =      3.88264  eV     1   --> G_3            
     e( 37 - 38) =      3.97432  eV     2   --> G_3            
     e( 37 - 38) =      3.97432  eV     2   --> G_4            
     e( 39 - 39) =      4.50525  eV     1   --> G_4            
     e( 40 - 40) =      4.50561  eV     1   --> G_3            
     e( 41 - 42) =      5.05903  eV     2   --> G_3            
     e( 41 - 42) =      5.05903  eV     2   --> G_4            
     e( 43 - 43) =      5.45481  eV     1   --> G_4            
     e( 44 - 44) =      5.45773  eV     1   --> G_3            
     e( 45 - 45) =      5.82854  eV     1   --> G_4            
     e( 46 - 46) =      5.82983  eV     1   --> G_3            
     e( 47 - 48) =      6.63222  eV     2   --> G_3            
     e( 47 - 48) =      6.63222  eV     2   --> G_4            
     e( 49 - 49) =      7.45549  eV     1   --> G_4            
     e( 50 - 50) =      7.45605  eV     1   --> G_3            

 **************************************************************************

 **************************************************************************

                    xk=(  -0.09524,   0.16496,   0.00000  )

     Band symmetry, C_s (m)     double point group:

     e(  1 -  2) =    -62.79731  eV     2   --> G_3            
     e(  1 -  2) =    -62.79731  eV     2   --> G_4            
     e(  3 -  3) =    -38.56010  eV     1   --> G_4            
     e(  4 -  4) =    -38.55840  eV     1   --> G_3            
     e(  5 -  5) =    -36.12159  eV     1   --> G_4            
     e(  6 -  6) =    -36.12044  eV     1   --> G_3            
     e(  7 -  7) =    -36.00701  eV     1   --> G_3            
     e(  8 -  8) =    -36.00338  eV     1   --> G_4            
     e(  9 -  9) =    -15.69218  eV     1   --> G_4            
     e( 10 - 10) =    -15.68911  eV     1   --> G_3            
     e( 11 - 11) =    -14.62870  eV     1   --> G_3            
     e( 12 - 12) =    -14.62842  eV     1   --> G_4            
     e( 13 - 13) =     -7.18530  eV     1   --> G_4            
     e( 14 - 14) =     -7.18111  eV     1   --> G_3            
     e( 15 - 15) =     -5.29633  eV     1   --> G_4            
     e( 16 - 16) =     -5.28506  eV     1   --> G_3            
     e( 17 - 17) =     -4.81972  eV     1   --> G_3            
     e( 18 - 18) =     -4.81600  eV     1   --> G_4            
     e( 19 - 19) =     -4.17941  eV     1   --> G_3            
     e( 20 - 20) =     -4.15399  eV     1   --> G_4            
     e( 21 - 21) =     -4.14308  eV     1   --> G_3            
     e( 22 - 22) =     -4.13559  eV     1   --> G_4            
     e( 23 - 23) =     -2.93699  eV     1   --> G_4            
     e( 24 - 24) =     -2.90831  eV     1   --> G_3            
     e( 25 - 25) =     -2.28297  eV     1   --> G_4            
     e( 26 - 26) =     -2.27389  eV     1   --> G_3            
     e( 27 - 27) =      0.30955  eV     1   --> G_4            
     e( 28 - 28) =      0.31378  eV     1   --> G_3            
     e( 29 - 29) =      0.49332  eV     1   --> G_3            
     e( 30 - 30) =      0.54463  eV     1   --> G_4            
     e( 31 - 31) =      0.65042  eV     1   --> G_3            
     e( 32 - 32) =      0.67939  eV     1   --> G_4            
     e( 33 - 33) =      1.44440  eV     1   --> G_4            
     e( 34 - 34) =      1.49493  eV     1   --> G_3            
     e( 35 - 35) =      4.04337  eV     1   --> G_4            
     e( 36 - 36) =      4.04532  eV     1   --> G_3            
     e( 37 - 37) =      4.13311  eV     1   --> G_3            
     e( 38 - 38) =      4.13322  eV     1   --> G_4            
     e( 39 - 39) =      4.67109  eV     1   --> G_4            
     e( 40 - 40) =      4.67158  eV     1   --> G_3            
     e( 41 - 42) =      5.21911  eV     2   --> G_3            
     e( 41 - 42) =      5.21911  eV     2   --> G_4            
     e( 43 - 43) =      5.72909  eV     1   --> G_4            
     e( 44 - 44) =      5.73159  eV     1   --> G_3            
     e( 45 - 45) =      6.12407  eV     1   --> G_4            
     e( 46 - 46) =      6.12687  eV     1   --> G_3            
     e( 47 - 48) =      6.78078  eV     2   --> G_3            
     e( 47 - 48) =      6.78078  eV     2   --> G_4            
     e( 49 - 49) =      7.55446  eV     1   --> G_4            
     e( 50 - 50) =      7.55695  eV     1   --> G_3            

 **************************************************************************

 **************************************************************************

                    xk=(  -0.11111,   0.19245,   0.00000  )

     Band symmetry, C_s (m)     double point group:

     e(  1 -  2) =    -62.79423  eV     2   --> G_3            
     e(  1 -  2) =    -62.79423  eV     2   --> G_4            
     e(  3 -  3) =    -38.56917  eV     1   --> G_4            
     e(  4 -  4) =    -38.56655  eV     1   --> G_3            
     e(  5 -  5) =    -36.12848  eV     1   --> G_4            
     e(  6 -  6) =    -36.12706  eV     1   --> G_3            
     e(  7 -  7) =    -36.02402  eV     1   --> G_3            
     e(  8 -  8) =    -36.01879  eV     1   --> G_4            
     e(  9 -  9) =    -15.56147  eV     1   --> G_4            
     e( 10 - 10) =    -15.55664  eV     1   --> G_3            
     e( 11 - 11) =    -14.57365  eV     1   --> G_3            
     e( 12 - 12) =    -14.57322  eV     1   --> G_4            
     e( 13 - 13) =     -7.07336  eV     1   --> G_4            
     e( 14 - 14) =     -7.06616  eV     1   --> G_3            
     e( 15 - 15) =     -5.47425  eV     1   --> G_4            
     e( 16 - 16) =     -5.46502  eV     1   --> G_3            
     e( 17 - 17) =     -4.99618  eV     1   --> G_3            
     e( 18 - 18) =     -4.98769  eV     1   --> G_4            
     e( 19 - 19) =     -4.39608  eV     1   --> G_4            
     e( 20 - 20) =     -4.39492  eV     1   --> G_3            
     e( 21 - 21) =     -4.06432  eV     1   --> G_3            
     e( 22 - 22) =     -4.02861  eV     1   --> G_4            
     e( 23 - 23) =     -2.92082  eV     1   --> G_4            
     e( 24 - 24) =     -2.88882  eV     1   --> G_3            
     e( 25 - 25) =     -2.40524  eV     1   --> G_4            
     e( 26 - 26) =     -2.38795  eV     1   --> G_3            
     e( 27 - 27) =      0.18626  eV     1   --> G_3            
     e( 28 - 28) =      0.19720  eV     1   --> G_4            
     e( 29 - 29) =      0.48720  eV     1   --> G_3            
     e( 30 - 30) =      0.52464  eV     1   --> G_4            
     e( 31 - 31) =      0.57269  eV     1   --> G_3            
     e( 32 - 32) =      0.61021  eV     1   --> G_4            
     e( 33 - 33) =      1.62528  eV     1   --> G_4            
     e( 34 - 34) =      1.67655  eV     1   --> G_3            
     e( 35 - 35) =      4.22728  eV     1   --> G_4            
     e( 36 - 36) =      4.22993  eV     1   --> G_3            
     e( 37 - 37) =      4.31814  eV     1   --> G_3            
     e( 38 - 38) =      4.31835  eV     1   --> G_4            
     e( 39 - 39) =      4.86470  eV     1   --> G_4            
     e( 40 - 40) =      4.86534  eV     1   --> G_3            
     e( 41 - 42) =      5.40678  eV     2   --> G_3            
     e( 41 - 42) =      5.40678  eV     2   --> G_4            
     e( 43 - 43) =      5.95850  eV     1   --> G_4            
     e( 44 - 44) =      5.96063  eV     1   --> G_3            
     e( 45 - 45) =      6.50516  eV     1   --> G_4            
     e( 46 - 46) =      6.50757  eV     1   --> G_3            
     e( 47 - 48) =      6.95052  eV     2   --> G_3            
     e( 47 - 48) =      6.95052  eV     2   --> G_4            
     e( 49 - 49) =      7.60730  eV     1   --> G_4            
     e( 50 - 50) =      7.61925  eV     1   --> G_3            

 **************************************************************************

 **************************************************************************

                    xk=(  -0.12698,   0.21994,   0.00000  )

     Band symmetry, C_s (m)     double point group:

     e(  1 -  2) =    -62.79093  eV     2   --> G_3            
     e(  1 -  2) =    -62.79093  eV     2   --> G_4            
     e(  3 -  3) =    -38.57910  eV     1   --> G_4            
     e(  4 -  4) =    -38.57531  eV     1   --> G_3            
     e(  5 -  5) =    -36.13717  eV     1   --> G_4            
     e(  6 -  6) =    -36.13592  eV     1   --> G_3            
     e(  7 -  7) =    -36.04034  eV     1   --> G_3            
     e(  8 -  8) =    -36.03360  eV     1   --> G_4            
     e(  9 -  9) =    -15.41734  eV     1   --> G_4            
     e( 10 - 10) =    -15.41019  eV     1   --> G_3            
     e( 11 - 11) =    -14.51288  eV     1   --> G_3            
     e( 12 - 12) =    -14.51224  eV     1   --> G_4            
     e( 13 - 13) =     -6.97576  eV     1   --> G_4            
     e( 14 - 14) =     -6.96418  eV     1   --> G_3            
     e( 15 - 15) =     -5.62646  eV     1   --> G_4            
     e( 16 - 16) =     -5.62145  eV     1   --> G_3            
     e( 17 - 17) =     -5.16559  eV     1   --> G_3            
     e( 18 - 18) =     -5.15048  eV     1   --> G_4            
     e( 19 - 19) =     -4.65577  eV     1   --> G_4            
     e( 20 - 20) =     -4.64606  eV     1   --> G_3            
     e( 21 - 21) =     -3.97396  eV     1   --> G_3            
     e( 22 - 22) =     -3.92775  eV     1   --> G_4            
     e( 23 - 23) =     -2.92843  eV     1   --> G_4            
     e( 24 - 24) =     -2.89400  eV     1   --> G_3            
     e( 25 - 25) =     -2.54134  eV     1   --> G_4            
     e( 26 - 26) =     -2.51177  eV     1   --> G_3            
     e( 27 - 27) =      0.07561  eV     1   --> G_3            
     e( 28 - 28) =      0.10501  eV     1   --> G_4            
     e( 29 - 29) =      0.49567  eV     1   --> G_3            
     e( 30 - 30) =      0.49786  eV     1   --> G_4            
     e( 31 - 31) =      0.54062  eV     1   --> G_3            
     e( 32 - 32) =      0.60346  eV     1   --> G_4            
     e( 33 - 33) =      1.80557  eV     1   --> G_4            
     e( 34 - 34) =      1.85581  eV     1   --> G_3            
     e( 35 - 35) =      4.43245  eV     1   --> G_4            
     e( 36 - 36) =      4.43604  eV     1   --> G_3            
     e( 37 - 37) =      4.52795  eV     1   --> G_3            
     e( 38 - 38) =      4.52832  eV     1   --> G_4            
     e( 39 - 39) =      5.08636  eV     1   --> G_4            
     e( 40 - 40) =      5.08718  eV     1   --> G_3            
     e( 41 - 41) =      5.62119  eV     1   --> G_3            
     e( 42 - 42) =      5.62129  eV     1   --> G_4            
     e( 43 - 43) =      6.18356  eV     1   --> G_4            
     e( 44 - 44) =      6.18564  eV     1   --> G_3            
     e( 45 - 45) =      6.88775  eV     1   --> G_3            
     e( 46 - 46) =      6.89216  eV     1   --> G_4            
     e( 47 - 47) =      7.13522  eV     1   --> G_4            
     e( 48 - 48) =      7.13534  eV     1   --> G_3            
     e( 49 - 49) =      7.57751  eV     1   --> G_4            
     e( 50 - 50) =      7.60963  eV     1   --> G_3            

 **************************************************************************

 **************************************************************************

                    xk=(  -0.14286,   0.24744,   0.00000  )

     Band symmetry, C_s (m)     double point group:

     e(  1 -  2) =    -62.78750  eV     2   --> G_3            
     e(  1 -  2) =    -62.78750  eV     2   --> G_4            
     e(  3 -  3) =    -38.58958  eV     1   --> G_4            
     e(  4 -  4) =    -38.58439  eV     1   --> G_3            
     e(  5 -  5) =    -36.14751  eV     1   --> G_4            
     e(  6 -  6) =    -36.14723  eV     1   --> G_3            
     e(  7 -  7) =    -36.05498  eV     1   --> G_3            
     e(  8 -  8) =    -36.04721  eV     1   --> G_4            
     e(  9 -  9) =    -15.26262  eV     1   --> G_4            
     e( 10 - 10) =    -15.25256  eV     1   --> G_3            
     e( 11 - 11) =    -14.44753  eV     1   --> G_3            
     e( 12 - 12) =    -14.44664  eV     1   --> G_4            
     e( 13 - 13) =     -6.91120  eV     1   --> G_4            
     e( 14 - 14) =     -6.89419  eV     1   --> G_3            
     e( 15 - 15) =     -5.73372  eV     1   --> G_3            
     e( 16 - 16) =     -5.73257  eV     1   --> G_4            
     e( 17 - 17) =     -5.33995  eV     1   --> G_3            
     e( 18 - 18) =     -5.31628  eV     1   --> G_4            
     e( 19 - 19) =     -4.90434  eV     1   --> G_4            
     e( 20 - 20) =     -4.88414  eV     1   --> G_3            
     e( 21 - 21) =     -3.91792  eV     1   --> G_3            
     e( 22 - 22) =     -3.85885  eV     1   --> G_4            
     e( 23 - 23) =     -2.95910  eV     1   --> G_4            
     e( 24 - 24) =     -2.92306  eV     1   --> G_3            
     e( 25 - 25) =     -2.67059  eV     1   --> G_4            
     e( 26 - 26) =     -2.62474  eV     1   --> G_3            
     e( 27 - 27) =     -0.01482  eV     1   --> G_3            
     e( 28 - 28) =      0.03269  eV     1   --> G_4            
     e( 29 - 29) =      0.48316  eV     1   --> G_4            
     e( 30 - 30) =      0.49421  eV     1   --> G_3            
     e( 31 - 31) =      0.58122  eV     1   --> G_3            
     e( 32 - 32) =      0.64617  eV     1   --> G_4            
     e( 33 - 33) =      1.97652  eV     1   --> G_4            
     e( 34 - 34) =      2.02383  eV     1   --> G_3            
     e( 35 - 35) =      4.65758  eV     1   --> G_4            
     e( 36 - 36) =      4.66247  eV     1   --> G_3            
     e( 37 - 37) =      4.76065  eV     1   --> G_3            
     e( 38 - 38) =      4.76124  eV     1   --> G_4            
     e( 39 - 39) =      5.33620  eV     1   --> G_4            
     e( 40 - 40) =      5.33725  eV     1   --> G_3            
     e( 41 - 41) =      5.86122  eV     1   --> G_3            
     e( 42 - 42) =      5.86135  eV     1   --> G_4            
     e( 43 - 43) =      6.42132  eV     1   --> G_4            
     e( 44 - 44) =      6.42320  eV     1   --> G_3            
     e( 45 - 45) =      7.11490  eV     1   --> G_3            
     e( 46 - 46) =      7.13111  eV     1   --> G_4            
     e( 47 - 47) =      7.31919  eV     1   --> G_4            
     e( 48 - 48) =      7.31991  eV     1   --> G_3            
     e( 49 - 49) =      7.61250  eV     1   --> G_4            
     e( 50 - 50) =      7.66318  eV     1   --> G_3            

 **************************************************************************

 **************************************************************************

                    xk=(  -0.15873,   0.27493,   0.00000  )

     Band symmetry, C_s (m)     double point group:

     e(  1 -  2) =    -62.78403  eV     2   --> G_3            
     e(  1 -  2) =    -62.78403  eV     2   --> G_4            
     e(  3 -  3) =    -38.60037  eV     1   --> G_4            
     e(  4 -  4) =    -38.59356  eV     1   --> G_3            
     e(  5 -  5) =    -36.16084  eV     1   --> G_3            
     e(  6 -  6) =    -36.15911  eV     1   --> G_4            
     e(  7 -  7) =    -36.06750  eV     1   --> G_3            
     e(  8 -  8) =    -36.05946  eV     1   --> G_4            
     e(  9 -  9) =    -15.10058  eV     1   --> G_4            
     e( 10 - 10) =    -15.08696  eV     1   --> G_3            
     e( 11 - 11) =    -14.37891  eV     1   --> G_3            
     e( 12 - 12) =    -14.37770  eV     1   --> G_4            
     e( 13 - 13) =     -6.89542  eV     1   --> G_4            
     e( 14 - 14) =     -6.87373  eV     1   --> G_3            
     e( 15 - 15) =     -5.78437  eV     1   --> G_3            
     e( 16 - 16) =     -5.77701  eV     1   --> G_4            
     e( 17 - 17) =     -5.54125  eV     1   --> G_3            
     e( 18 - 18) =     -5.51171  eV     1   --> G_4            
     e( 19 - 19) =     -5.10375  eV     1   --> G_4            
     e( 20 - 20) =     -5.07589  eV     1   --> G_3            
     e( 21 - 21) =     -3.92061  eV     1   --> G_3            
     e( 22 - 22) =     -3.84925  eV     1   --> G_4            
     e( 23 - 23) =     -3.01142  eV     1   --> G_4            
     e( 24 - 24) =     -2.97553  eV     1   --> G_3            
     e( 25 - 25) =     -2.76608  eV     1   --> G_4            
     e( 26 - 26) =     -2.70207  eV     1   --> G_3            
     e( 27 - 27) =     -0.07447  eV     1   --> G_3            
     e( 28 - 28) =     -0.01200  eV     1   --> G_4            
     e( 29 - 29) =      0.49679  eV     1   --> G_4            
     e( 30 - 30) =      0.51243  eV     1   --> G_3            
     e( 31 - 31) =      0.65465  eV     1   --> G_3            
     e( 32 - 32) =      0.71434  eV     1   --> G_4            
     e( 33 - 33) =      2.13076  eV     1   --> G_4            
     e( 34 - 34) =      2.17301  eV     1   --> G_3            
     e( 35 - 35) =      4.90020  eV     1   --> G_4            
     e( 36 - 36) =      4.90700  eV     1   --> G_3            
     e( 37 - 37) =      5.01392  eV     1   --> G_3            
     e( 38 - 38) =      5.01479  eV     1   --> G_4            
     e( 39 - 39) =      5.61421  eV     1   --> G_4            
     e( 40 - 40) =      5.61555  eV     1   --> G_3            
     e( 41 - 41) =      6.12537  eV     1   --> G_3            
     e( 42 - 42) =      6.12551  eV     1   --> G_4            
     e( 43 - 43) =      6.67365  eV     1   --> G_3            
     e( 44 - 44) =      6.67415  eV     1   --> G_4            
     e( 45 - 45) =      7.05411  eV     1   --> G_3            
     e( 46 - 46) =      7.05996  eV     1   --> G_4            
     e( 47 - 47) =      7.45515  eV     1   --> G_4            
     e( 48 - 48) =      7.45703  eV     1   --> G_3            
     e( 49 - 49) =      7.87247  eV     1   --> G_4            
     e( 50 - 50) =      7.88276  eV     1   --> G_3            

 **************************************************************************

 **************************************************************************

                    xk=(  -0.17460,   0.30242,   0.00000  )

     Band symmetry, C_s (m)     double point group:

     e(  1 -  2) =    -62.78061  eV     2   --> G_3            
     e(  1 -  2) =    -62.78061  eV     2   --> G_4            
     e(  3 -  3) =    -38.61117  eV     1   --> G_4            
     e(  4 -  4) =    -38.60255  eV     1   --> G_3            
     e(  5 -  5) =    -36.17604  eV     1   --> G_3            
     e(  6 -  6) =    -36.17126  eV     1   --> G_4            
     e(  7 -  7) =    -36.07797  eV     1   --> G_3            
     e(  8 -  8) =    -36.07043  eV     1   --> G_4            
     e(  9 -  9) =    -14.93490  eV     1   --> G_4            
     e( 10 - 10) =    -14.91706  eV     1   --> G_3            
     e( 11 - 11) =    -14.30845  eV     1   --> G_3            
     e( 12 - 12) =    -14.30688  eV     1   --> G_4            
     e( 13 - 13) =     -6.92671  eV     1   --> G_4            
     e( 14 - 14) =     -6.90352  eV     1   --> G_3            
     e( 15 - 15) =     -5.78220  eV     1   --> G_3            
     e( 16 - 16) =     -5.77122  eV     1   --> G_4            
     e( 17 - 17) =     -5.77091  eV     1   --> G_3            
     e( 18 - 18) =     -5.74261  eV     1   --> G_4            
     e( 19 - 19) =     -5.23012  eV     1   --> G_4            
     e( 20 - 20) =     -5.20212  eV     1   --> G_3            
     e( 21 - 21) =     -3.99546  eV     1   --> G_3            
     e( 22 - 22) =     -3.91783  eV     1   --> G_4            
     e( 23 - 23) =     -3.08301  eV     1   --> G_4            
     e( 24 - 24) =     -3.05031  eV     1   --> G_3            
     e( 25 - 25) =     -2.80912  eV     1   --> G_4            
     e( 26 - 26) =     -2.72955  eV     1   --> G_3            
     e( 27 - 27) =     -0.09034  eV     1   --> G_3            
     e( 28 - 28) =     -0.01722  eV     1   --> G_4            
     e( 29 - 29) =      0.53224  eV     1   --> G_4            
     e( 30 - 30) =      0.54862  eV     1   --> G_3            
     e( 31 - 31) =      0.74482  eV     1   --> G_3            
     e( 32 - 32) =      0.79736  eV     1   --> G_4            
     e( 33 - 33) =      2.26338  eV     1   --> G_4            
     e( 34 - 34) =      2.29806  eV     1   --> G_3            
     e( 35 - 35) =      5.15563  eV     1   --> G_4            
     e( 36 - 36) =      5.16543  eV     1   --> G_3            
     e( 37 - 37) =      5.28494  eV     1   --> G_3            
     e( 38 - 38) =      5.28607  eV     1   --> G_4            
     e( 39 - 39) =      5.92004  eV     1   --> G_4            
     e( 40 - 40) =      5.92184  eV     1   --> G_3            
     e( 41 - 42) =      6.41141  eV     2   --> G_3            
     e( 41 - 42) =      6.41141  eV     2   --> G_4            
     e( 43 - 43) =      6.81205  eV     1   --> G_3            
     e( 44 - 44) =      6.83591  eV     1   --> G_4            
     e( 45 - 45) =      6.97185  eV     1   --> G_4            
     e( 46 - 46) =      6.99089  eV     1   --> G_3            
     e( 47 - 47) =      7.49343  eV     1   --> G_4            
     e( 48 - 48) =      7.49542  eV     1   --> G_3            
     e( 49 - 49) =      8.00214  eV     1   --> G_3            
     e( 50 - 50) =      8.00610  eV     1   --> G_4            

 **************************************************************************

 **************************************************************************

                    xk=(  -0.19047,   0.32992,   0.00000  )

     Band symmetry, C_s (m)     double point group:

     e(  1 -  2) =    -62.77733  eV     2   --> G_3            
     e(  1 -  2) =    -62.77733  eV     2   --> G_4            
     e(  3 -  3) =    -38.62170  eV     1   --> G_4            
     e(  4 -  4) =    -38.61114  eV     1   --> G_3            
     e(  5 -  5) =    -36.19182  eV     1   --> G_3            
     e(  6 -  6) =    -36.18313  eV     1   --> G_4            
     e(  7 -  7) =    -36.08688  eV     1   --> G_3            
     e(  8 -  8) =    -36.08049  eV     1   --> G_4            
     e(  9 -  9) =    -14.76964  eV     1   --> G_4            
     e( 10 - 10) =    -14.74693  eV     1   --> G_3            
     e( 11 - 11) =    -14.23772  eV     1   --> G_3            
     e( 12 - 12) =    -14.23574  eV     1   --> G_4            
     e( 13 - 13) =     -6.98450  eV     1   --> G_4            
     e( 14 - 14) =     -6.96345  eV     1   --> G_3            
     e( 15 - 15) =     -6.03663  eV     1   --> G_3            
     e( 16 - 16) =     -6.01475  eV     1   --> G_4            
     e( 17 - 17) =     -5.72482  eV     1   --> G_3            
     e( 18 - 18) =     -5.71064  eV     1   --> G_4            
     e( 19 - 19) =     -5.29715  eV     1   --> G_4            
     e( 20 - 20) =     -5.27180  eV     1   --> G_3            
     e( 21 - 21) =     -4.13404  eV     1   --> G_3            
     e( 22 - 22) =     -4.05715  eV     1   --> G_4            
     e( 23 - 23) =     -3.17274  eV     1   --> G_4            
     e( 24 - 24) =     -3.14484  eV     1   --> G_3            
     e( 25 - 25) =     -2.80304  eV     1   --> G_4            
     e( 26 - 26) =     -2.71339  eV     1   --> G_3            
     e( 27 - 27) =     -0.05445  eV     1   --> G_3            
     e( 28 - 28) =      0.02347  eV     1   --> G_4            
     e( 29 - 29) =      0.57916  eV     1   --> G_4            
     e( 30 - 30) =      0.59137  eV     1   --> G_3            
     e( 31 - 31) =      0.84302  eV     1   --> G_3            
     e( 32 - 32) =      0.88651  eV     1   --> G_4            
     e( 33 - 33) =      2.37302  eV     1   --> G_4            
     e( 34 - 34) =      2.39720  eV     1   --> G_3            
     e( 35 - 35) =      5.41393  eV     1   --> G_4            
     e( 36 - 36) =      5.42883  eV     1   --> G_3            
     e( 37 - 37) =      5.57023  eV     1   --> G_3            
     e( 38 - 38) =      5.57151  eV     1   --> G_4            
     e( 39 - 39) =      6.25169  eV     1   --> G_4            
     e( 40 - 40) =      6.25468  eV     1   --> G_3            
     e( 41 - 41) =      6.60088  eV     1   --> G_3            
     e( 42 - 42) =      6.62492  eV     1   --> G_4            
     e( 43 - 43) =      6.71493  eV     1   --> G_4            
     e( 44 - 44) =      6.71519  eV     1   --> G_3            
     e( 45 - 45) =      7.23498  eV     1   --> G_4            
     e( 46 - 46) =      7.24591  eV     1   --> G_3            
     e( 47 - 47) =      7.51403  eV     1   --> G_4            
     e( 48 - 48) =      7.51478  eV     1   --> G_3            
     e( 49 - 49) =      8.20998  eV     1   --> G_3            
     e( 50 - 50) =      8.22091  eV     1   --> G_4            

 **************************************************************************

 **************************************************************************

                    xk=(  -0.20635,   0.35741,   0.00000  )

     Band symmetry, C_s (m)     double point group:

     e(  1 -  2) =    -62.77427  eV     2   --> G_3            
     e(  1 -  2) =    -62.77427  eV     2   --> G_4            
     e(  3 -  3) =    -38.63163  eV     1   --> G_4            
     e(  4 -  4) =    -38.61902  eV     1   --> G_3            
     e(  5 -  5) =    -36.20707  eV     1   --> G_3            
     e(  6 -  6) =    -36.19389  eV     1   --> G_4            
     e(  7 -  7) =    -36.09469  eV     1   --> G_3            
     e(  8 -  8) =    -36.08995  eV     1   --> G_4            
     e(  9 -  9) =    -14.60917  eV     1   --> G_4            
     e( 10 - 10) =    -14.58102  eV     1   --> G_3            
     e( 11 - 11) =    -14.16840  eV     1   --> G_3            
     e( 12 - 12) =    -14.16598  eV     1   --> G_4            
     e( 13 - 13) =     -7.04446  eV     1   --> G_4            
     e( 14 - 14) =     -7.02820  eV     1   --> G_3            
     e( 15 - 15) =     -6.29334  eV     1   --> G_3            
     e( 16 - 16) =     -6.27537  eV     1   --> G_4            
     e( 17 - 17) =     -5.66434  eV     1   --> G_3            
     e( 18 - 18) =     -5.65100  eV     1   --> G_4            
     e( 19 - 19) =     -5.32209  eV     1   --> G_4            
     e( 20 - 20) =     -5.29893  eV     1   --> G_3            
     e( 21 - 21) =     -4.31597  eV     1   --> G_3            
     e( 22 - 22) =     -4.24332  eV     1   --> G_4            
     e( 23 - 23) =     -3.27937  eV     1   --> G_4            
     e( 24 - 24) =     -3.25633  eV     1   --> G_3            
     e( 25 - 25) =     -2.76285  eV     1   --> G_4            
     e( 26 - 26) =     -2.66701  eV     1   --> G_3            
     e( 27 - 27) =      0.02924  eV     1   --> G_3            
     e( 28 - 28) =      0.10208  eV     1   --> G_4            
     e( 29 - 29) =      0.63193  eV     1   --> G_3            
     e( 30 - 30) =      0.63292  eV     1   --> G_4            
     e( 31 - 31) =      0.94035  eV     1   --> G_3            
     e( 32 - 32) =      0.97255  eV     1   --> G_4            
     e( 33 - 33) =      2.46276  eV     1   --> G_4            
     e( 34 - 34) =      2.47328  eV     1   --> G_3            
     e( 35 - 35) =      5.64732  eV     1   --> G_4            
     e( 36 - 36) =      5.67169  eV     1   --> G_3            
     e( 37 - 37) =      5.86534  eV     1   --> G_3            
     e( 38 - 38) =      5.86652  eV     1   --> G_4            
     e( 39 - 39) =      6.37050  eV     1   --> G_3            
     e( 40 - 40) =      6.40383  eV     1   --> G_4            
     e( 41 - 41) =      6.61928  eV     1   --> G_3            
     e( 42 - 42) =      6.62205  eV     1   --> G_4            
     e( 43 - 43) =      7.02639  eV     1   --> G_4            
     e( 44 - 44) =      7.02734  eV     1   --> G_3            
     e( 45 - 45) =      7.48720  eV     1   --> G_4            
     e( 46 - 46) =      7.48799  eV     1   --> G_3            
     e( 47 - 47) =      7.59114  eV     1   --> G_3            
     e( 48 - 48) =      7.59166  eV     1   --> G_4            
     e( 49 - 49) =      8.19117  eV     1   --> G_3            
     e( 50 - 50) =      8.26313  eV     1   --> G_4            

 **************************************************************************

 **************************************************************************

                    xk=(  -0.22222,   0.38490,   0.00000  )

     Band symmetry, C_s (m)     double point group:

     e(  1 -  2) =    -62.77148  eV     2   --> G_3            
     e(  1 -  2) =    -62.77148  eV     2   --> G_4            
     e(  3 -  3) =    -38.64074  eV     1   --> G_4            
     e(  4 -  4) =    -38.62606  eV     1   --> G_3            
     e(  5 -  5) =    -36.22106  eV     1   --> G_3            
     e(  6 -  6) =    -36.20296  eV     1   --> G_4            
     e(  7 -  7) =    -36.10183  eV     1   --> G_3            
     e(  8 -  8) =    -36.09913  eV     1   --> G_4            
     e(  9 -  9) =    -14.45803  eV     1   --> G_4            
     e( 10 - 10) =    -14.42400  eV     1   --> G_3            
     e( 11 - 11) =    -14.10226  eV     1   --> G_3            
     e( 12 - 12) =    -14.09938  eV     1   --> G_4            
     e( 13 - 13) =     -7.08813  eV     1   --> G_4            
     e( 14 - 14) =     -7.07842  eV     1   --> G_3            
     e( 15 - 15) =     -6.53634  eV     1   --> G_3            
     e( 16 - 16) =     -6.52152  eV     1   --> G_4            
     e( 17 - 17) =     -5.61227  eV     1   --> G_3            
     e( 18 - 18) =     -5.60099  eV     1   --> G_4            
     e( 19 - 19) =     -5.31394  eV     1   --> G_4            
     e( 20 - 20) =     -5.29221  eV     1   --> G_3            
     e( 21 - 21) =     -4.52314  eV     1   --> G_3            
     e( 22 - 22) =     -4.45576  eV     1   --> G_4            
     e( 23 - 23) =     -3.40008  eV     1   --> G_4            
     e( 24 - 24) =     -3.38180  eV     1   --> G_3            
     e( 25 - 25) =     -2.69787  eV     1   --> G_4            
     e( 26 - 26) =     -2.59727  eV     1   --> G_3            
     e( 27 - 27) =      0.13705  eV     1   --> G_3            
     e( 28 - 28) =      0.18739  eV     1   --> G_4            
     e( 29 - 29) =      0.67324  eV     1   --> G_3            
     e( 30 - 30) =      0.70477  eV     1   --> G_4            
     e( 31 - 31) =      1.02725  eV     1   --> G_3            
     e( 32 - 32) =      1.04577  eV     1   --> G_4            
     e( 33 - 33) =      2.53362  eV     1   --> G_3            
     e( 34 - 34) =      2.53961  eV     1   --> G_4            
     e( 35 - 35) =      5.76371  eV     1   --> G_4            
     e( 36 - 36) =      5.79341  eV     1   --> G_3            
     e( 37 - 37) =      6.16378  eV     1   --> G_3            
     e( 38 - 38) =      6.16519  eV     1   --> G_4            
     e( 39 - 39) =      6.25317  eV     1   --> G_3            
     e( 40 - 40) =      6.30636  eV     1   --> G_4            
     e( 41 - 41) =      6.99249  eV     1   --> G_3            
     e( 42 - 42) =      6.99451  eV     1   --> G_4            
     e( 43 - 43) =      7.32645  eV     1   --> G_4            
     e( 44 - 44) =      7.32817  eV     1   --> G_3            
     e( 45 - 45) =      7.55596  eV     1   --> G_3            
     e( 46 - 46) =      7.59492  eV     1   --> G_4            
     e( 47 - 47) =      7.76258  eV     1   --> G_3            
     e( 48 - 48) =      7.76413  eV     1   --> G_4            
     e( 49 - 49) =      8.20628  eV     1   --> G_3            
     e( 50 - 50) =      8.24512  eV     1   --> G_4            

 **************************************************************************

 **************************************************************************

                    xk=(  -0.23809,   0.41239,   0.00000  )

     Band symmetry, C_s (m)     double point group:

     e(  1 -  2) =    -62.76903  eV     2   --> G_3            
     e(  1 -  2) =    -62.76903  eV     2   --> G_4            
     e(  3 -  3) =    -38.64879  eV     1   --> G_4            
     e(  4 -  4) =    -38.63209  eV     1   --> G_3            
     e(  5 -  5) =    -36.23318  eV     1   --> G_3            
     e(  6 -  6) =    -36.20990  eV     1   --> G_4            
     e(  7 -  7) =    -36.10848  eV     1   --> G_3            
     e(  8 -  8) =    -36.10817  eV     1   --> G_4            
     e(  9 -  9) =    -14.32067  eV     1   --> G_4            
     e( 10 - 10) =    -14.28056  eV     1   --> G_3            
     e( 11 - 11) =    -14.04107  eV     1   --> G_3            
     e( 12 - 12) =    -14.03776  eV     1   --> G_4            
     e( 13 - 13) =     -7.10327  eV     1   --> G_4            
     e( 14 - 14) =     -7.10126  eV     1   --> G_3            
     e( 15 - 15) =     -6.75729  eV     1   --> G_3            
     e( 16 - 16) =     -6.74488  eV     1   --> G_4            
     e( 17 - 17) =     -5.58012  eV     1   --> G_3            
     e( 18 - 18) =     -5.57162  eV     1   --> G_4            
     e( 19 - 19) =     -5.27814  eV     1   --> G_4            
     e( 20 - 20) =     -5.25756  eV     1   --> G_3            
     e( 21 - 21) =     -4.74255  eV     1   --> G_3            
     e( 22 - 22) =     -4.68130  eV     1   --> G_4            
     e( 23 - 23) =     -3.53098  eV     1   --> G_4            
     e( 24 - 24) =     -3.51759  eV     1   --> G_3            
     e( 25 - 25) =     -2.61045  eV     1   --> G_4            
     e( 26 - 26) =     -2.50517  eV     1   --> G_3            
     e( 27 - 27) =      0.21659  eV     1   --> G_3            
     e( 28 - 28) =      0.22825  eV     1   --> G_4            
     e( 29 - 29) =      0.74352  eV     1   --> G_3            
     e( 30 - 30) =      0.82306  eV     1   --> G_4            
     e( 31 - 31) =      1.09476  eV     1   --> G_3            
     e( 32 - 32) =      1.09758  eV     1   --> G_4            
     e( 33 - 33) =      2.58828  eV     1   --> G_3            
     e( 34 - 34) =      2.61249  eV     1   --> G_4            
     e( 35 - 35) =      5.67652  eV     1   --> G_4            
     e( 36 - 36) =      5.68134  eV     1   --> G_3            
     e( 37 - 37) =      6.31380  eV     1   --> G_3            
     e( 38 - 38) =      6.36861  eV     1   --> G_4            
     e( 39 - 39) =      6.46047  eV     1   --> G_4            
     e( 40 - 40) =      6.46201  eV     1   --> G_3            
     e( 41 - 41) =      7.28407  eV     1   --> G_3            
     e( 42 - 42) =      7.31009  eV     1   --> G_4            
     e( 43 - 43) =      7.57860  eV     1   --> G_3            
     e( 44 - 44) =      7.60224  eV     1   --> G_4            
     e( 45 - 45) =      7.60416  eV     1   --> G_3            
     e( 46 - 46) =      7.60597  eV     1   --> G_4            
     e( 47 - 47) =      8.04674  eV     1   --> G_3            
     e( 48 - 48) =      8.04950  eV     1   --> G_4            
     e( 49 - 49) =      8.46716  eV     1   --> G_3            
     e( 50 - 50) =      8.47275  eV     1   --> G_4            

 **************************************************************************

 **************************************************************************

                    xk=(  -0.25397,   0.43989,   0.00000  )

     Band symmetry, C_s (m)     double point group:

     e(  1 -  2) =    -62.76696  eV     2   --> G_3            
     e(  1 -  2) =    -62.76696  eV     2   --> G_4            
     e(  3 -  3) =    -38.65564  eV     1   --> G_4            
     e(  4 -  4) =    -38.63704  eV     1   --> G_3            
     e(  5 -  5) =    -36.24307  eV     1   --> G_3            
     e(  6 -  6) =    -36.21444  eV     1   --> G_4            
     e(  7 -  7) =    -36.11712  eV     1   --> G_4            
     e(  8 -  8) =    -36.11471  eV     1   --> G_3            
     e(  9 -  9) =    -14.20109  eV     1   --> G_4            
     e( 10 - 10) =    -14.15502  eV     1   --> G_3            
     e( 11 - 11) =    -13.98659  eV     1   --> G_3            
     e( 12 - 12) =    -13.98292  eV     1   --> G_4            
     e( 13 - 13) =     -7.08851  eV     1   --> G_3            
     e( 14 - 14) =     -7.08217  eV     1   --> G_4            
     e( 15 - 15) =     -6.95036  eV     1   --> G_3            
     e( 16 - 16) =     -6.93976  eV     1   --> G_4            
     e( 17 - 17) =     -5.57422  eV     1   --> G_3            
     e( 18 - 18) =     -5.56771  eV     1   --> G_4            
     e( 19 - 19) =     -5.21980  eV     1   --> G_4            
     e( 20 - 20) =     -5.20219  eV     1   --> G_3            
     e( 21 - 21) =     -4.96096  eV     1   --> G_3            
     e( 22 - 22) =     -4.91000  eV     1   --> G_4            
     e( 23 - 23) =     -3.66741  eV     1   --> G_4            
     e( 24 - 24) =     -3.65924  eV     1   --> G_3            
     e( 25 - 25) =     -2.50263  eV     1   --> G_4            
     e( 26 - 26) =     -2.39193  eV     1   --> G_3            
     e( 27 - 27) =      0.19661  eV     1   --> G_4            
     e( 28 - 28) =      0.21289  eV     1   --> G_3            
     e( 29 - 29) =      0.87532  eV     1   --> G_3            
     e( 30 - 30) =      0.99564  eV     1   --> G_4            
     e( 31 - 31) =      1.12307  eV     1   --> G_4            
     e( 32 - 32) =      1.13761  eV     1   --> G_3            
     e( 33 - 33) =      2.64612  eV     1   --> G_3            
     e( 34 - 34) =      2.68827  eV     1   --> G_4            
     e( 35 - 35) =      5.49789  eV     1   --> G_3            
     e( 36 - 36) =      5.51579  eV     1   --> G_4            
     e( 37 - 37) =      6.32245  eV     1   --> G_3            
     e( 38 - 38) =      6.38951  eV     1   --> G_4            
     e( 39 - 39) =      6.74421  eV     1   --> G_4            
     e( 40 - 40) =      6.74699  eV     1   --> G_3            
     e( 41 - 41) =      7.38686  eV     1   --> G_3            
     e( 42 - 42) =      7.41145  eV     1   --> G_4            
     e( 43 - 43) =      7.88191  eV     1   --> G_3            
     e( 44 - 44) =      7.88222  eV     1   --> G_4            
     e( 45 - 45) =      7.94414  eV     1   --> G_3            
     e( 46 - 46) =      7.94566  eV     1   --> G_4            
     e( 47 - 47) =      8.41593  eV     1   --> G_3            
     e( 48 - 48) =      8.41882  eV     1   --> G_4            
     e( 49 - 49) =      8.80373  eV     1   --> G_4            
     e( 50 - 50) =      8.81114  eV     1   --> G_3            

 **************************************************************************

 **************************************************************************

                    xk=(  -0.26984,   0.46738,   0.00000  )

     Band symmetry, C_s (m)     double point group:

     e(  1 -  2) =    -62.76528  eV     2   --> G_3            
     e(  1 -  2) =    -62.76528  eV     2   --> G_4            
     e(  3 -  3) =    -38.66120  eV     1   --> G_4            
     e(  4 -  4) =    -38.64090  eV     1   --> G_3            
     e(  5 -  5) =    -36.25062  eV     1   --> G_3            
     e(  6 -  6) =    -36.21663  eV     1   --> G_4            
     e(  7 -  7) =    -36.12590  eV     1   --> G_4            
     e(  8 -  8) =    -36.12047  eV     1   --> G_3            
     e(  9 -  9) =    -14.10247  eV     1   --> G_4            
     e( 10 - 10) =    -14.05092  eV     1   --> G_3            
     e( 11 - 11) =    -13.94040  eV     1   --> G_3            
     e( 12 - 12) =    -13.93647  eV     1   --> G_4            
     e( 13 - 13) =     -7.11158  eV     1   --> G_3            
     e( 14 - 14) =     -7.10256  eV     1   --> G_4            
     e( 15 - 15) =     -7.03538  eV     1   --> G_3            
     e( 16 - 16) =     -7.02025  eV     1   --> G_4            
     e( 17 - 17) =     -5.60224  eV     1   --> G_3            
     e( 18 - 18) =     -5.59319  eV     1   --> G_4            
     e( 19 - 19) =     -5.20195  eV     1   --> G_3            
     e( 20 - 20) =     -5.15688  eV     1   --> G_4            
     e( 21 - 21) =     -5.11764  eV     1   --> G_4            
     e( 22 - 22) =     -5.09261  eV     1   --> G_3            
     e( 23 - 23) =     -3.80359  eV     1   --> G_4            
     e( 24 - 24) =     -3.80127  eV     1   --> G_3            
     e( 25 - 25) =     -2.38081  eV     1   --> G_4            
     e( 26 - 26) =     -2.26331  eV     1   --> G_3            
     e( 27 - 27) =      0.10741  eV     1   --> G_4            
     e( 28 - 28) =      0.13089  eV     1   --> G_3            
     e( 29 - 29) =      1.04009  eV     1   --> G_3            
     e( 30 - 30) =      1.12236  eV     1   --> G_4            
     e( 31 - 31) =      1.16436  eV     1   --> G_3            
     e( 32 - 32) =      1.19471  eV     1   --> G_4            
     e( 33 - 33) =      2.71075  eV     1   --> G_3            
     e( 34 - 34) =      2.76845  eV     1   --> G_4            
     e( 35 - 35) =      5.33344  eV     1   --> G_3            
     e( 36 - 36) =      5.36937  eV     1   --> G_4            
     e( 37 - 37) =      6.20084  eV     1   --> G_3            
     e( 38 - 38) =      6.27380  eV     1   --> G_4            
     e( 39 - 39) =      7.00881  eV     1   --> G_4            
     e( 40 - 40) =      7.01324  eV     1   --> G_3            
     e( 41 - 41) =      7.59906  eV     1   --> G_3            
     e( 42 - 42) =      7.60151  eV     1   --> G_4            
     e( 43 - 43) =      8.18847  eV     1   --> G_3            
     e( 44 - 44) =      8.19058  eV     1   --> G_4            
     e( 45 - 45) =      8.40542  eV     1   --> G_4            
     e( 46 - 46) =      8.40738  eV     1   --> G_3            
     e( 47 - 47) =      8.82977  eV     1   --> G_3            
     e( 48 - 48) =      8.83294  eV     1   --> G_4            
     e( 49 - 49) =      9.15861  eV     1   --> G_4            
     e( 50 - 50) =      9.17259  eV     1   --> G_3            

 **************************************************************************

 **************************************************************************

                    xk=(  -0.28571,   0.49487,   0.00000  )

     Band symmetry, C_s (m)     double point group:

     e(  1 -  2) =    -62.76400  eV     2   --> G_3            
     e(  1 -  2) =    -62.76400  eV     2   --> G_4            
     e(  3 -  3) =    -38.66539  eV     1   --> G_4            
     e(  4 -  4) =    -38.64366  eV     1   --> G_3            
     e(  5 -  5) =    -36.25584  eV     1   --> G_3            
     e(  6 -  6) =    -36.21664  eV     1   --> G_4            
     e(  7 -  7) =    -36.13419  eV     1   --> G_4            
     e(  8 -  8) =    -36.12553  eV     1   --> G_3            
     e(  9 -  9) =    -14.02676  eV     1   --> G_4            
     e( 10 - 10) =    -13.97061  eV     1   --> G_3            
     e( 11 - 11) =    -13.90380  eV     1   --> G_3            
     e( 12 - 12) =    -13.89977  eV     1   --> G_4            
     e( 13 - 13) =     -7.23763  eV     1   --> G_3            
     e( 14 - 14) =     -7.22956  eV     1   --> G_4            
     e( 15 - 15) =     -6.94166  eV     1   --> G_3            
     e( 16 - 16) =     -6.91834  eV     1   --> G_4            
     e( 17 - 17) =     -5.68439  eV     1   --> G_3            
     e( 18 - 18) =     -5.66102  eV     1   --> G_4            
     e( 19 - 19) =     -5.35123  eV     1   --> G_3            
     e( 20 - 20) =     -5.32130  eV     1   --> G_4            
     e( 21 - 21) =     -5.05628  eV     1   --> G_4            
     e( 22 - 22) =     -5.01996  eV     1   --> G_3            
     e( 23 - 23) =     -3.93647  eV     1   --> G_3            
     e( 24 - 24) =     -3.93200  eV     1   --> G_4            
     e( 25 - 25) =     -2.25704  eV     1   --> G_4            
     e( 26 - 26) =     -2.13109  eV     1   --> G_3            
     e( 27 - 27) =     -0.01066  eV     1   --> G_4            
     e( 28 - 28) =      0.00842  eV     1   --> G_3            
     e( 29 - 29) =      1.10366  eV     1   --> G_4            
     e( 30 - 30) =      1.11285  eV     1   --> G_3            
     e( 31 - 31) =      1.26230  eV     1   --> G_3            
     e( 32 - 32) =      1.38432  eV     1   --> G_4            
     e( 33 - 33) =      2.77869  eV     1   --> G_3            
     e( 34 - 34) =      2.84827  eV     1   --> G_4            
     e( 35 - 35) =      5.21695  eV     1   --> G_3            
     e( 36 - 36) =      5.26945  eV     1   --> G_4            
     e( 37 - 37) =      6.02552  eV     1   --> G_3            
     e( 38 - 38) =      6.09153  eV     1   --> G_4            
     e( 39 - 39) =      7.24498  eV     1   --> G_4            
     e( 40 - 40) =      7.25102  eV     1   --> G_3            
     e( 41 - 41) =      7.87527  eV     1   --> G_4            
     e( 42 - 42) =      7.88734  eV     1   --> G_3            
     e( 43 - 43) =      8.52227  eV     1   --> G_3            
     e( 44 - 44) =      8.52567  eV     1   --> G_4            
     e( 45 - 45) =      8.89725  eV     1   --> G_4            
     e( 46 - 46) =      8.90090  eV     1   --> G_3            
     e( 47 - 47) =      9.24597  eV     1   --> G_3            
     e( 48 - 48) =      9.25182  eV     1   --> G_4            
     e( 49 - 49) =      9.50122  eV     1   --> G_4            
     e( 50 - 50) =      9.51467  eV     1   --> G_3            

 **************************************************************************

 **************************************************************************

                    xk=(  -0.30158,   0.52237,   0.00000  )

     Band symmetry, C_s (m)     double point group:

     e(  1 -  2) =    -62.76313  eV     2   --> G_3            
     e(  1 -  2) =    -62.76313  eV     2   --> G_4            
     e(  3 -  3) =    -38.66828  eV     1   --> G_4            
     e(  4 -  4) =    -38.64546  eV     1   --> G_3            
     e(  5 -  5) =    -36.25897  eV     1   --> G_3            
     e(  6 -  6) =    -36.21508  eV     1   --> G_4            
     e(  7 -  7) =    -36.14152  eV     1   --> G_4            
     e(  8 -  8) =    -36.12967  eV     1   --> G_3            
     e(  9 -  9) =    -13.97451  eV     1   --> G_4            
     e( 10 - 10) =    -13.91495  eV     1   --> G_3            
     e( 11 - 11) =    -13.87766  eV     1   --> G_3            
     e( 12 - 12) =    -13.87366  eV     1   --> G_4            
     e( 13 - 13) =     -7.32719  eV     1   --> G_3            
     e( 14 - 14) =     -7.31980  eV     1   --> G_4            
     e( 15 - 15) =     -6.81280  eV     1   --> G_3            
     e( 16 - 16) =     -6.78237  eV     1   --> G_4            
     e( 17 - 17) =     -5.83248  eV     1   --> G_3            
     e( 18 - 18) =     -5.78950  eV     1   --> G_4            
     e( 19 - 19) =     -5.44461  eV     1   --> G_3            
     e( 20 - 20) =     -5.44266  eV     1   --> G_4            
     e( 21 - 21) =     -4.97473  eV     1   --> G_4            
     e( 22 - 22) =     -4.93392  eV     1   --> G_3            
     e( 23 - 23) =     -4.05429  eV     1   --> G_3            
     e( 24 - 24) =     -4.04199  eV     1   --> G_4            
     e( 25 - 25) =     -2.14841  eV     1   --> G_4            
     e( 26 - 26) =     -2.01298  eV     1   --> G_3            
     e( 27 - 27) =     -0.12708  eV     1   --> G_4            
     e( 28 - 28) =     -0.11722  eV     1   --> G_3            
     e( 29 - 29) =      1.07622  eV     1   --> G_4            
     e( 30 - 30) =      1.10131  eV     1   --> G_3            
     e( 31 - 31) =      1.40055  eV     1   --> G_3            
     e( 32 - 32) =      1.53735  eV     1   --> G_4            
     e( 33 - 33) =      2.84089  eV     1   --> G_3            
     e( 34 - 34) =      2.91841  eV     1   --> G_4            
     e( 35 - 35) =      5.16543  eV     1   --> G_3            
     e( 36 - 36) =      5.23571  eV     1   --> G_4            
     e( 37 - 37) =      5.84510  eV     1   --> G_3            
     e( 38 - 38) =      5.89643  eV     1   --> G_4            
     e( 39 - 39) =      7.43739  eV     1   --> G_4            
     e( 40 - 40) =      7.44466  eV     1   --> G_3            
     e( 41 - 41) =      8.15485  eV     1   --> G_4            
     e( 42 - 42) =      8.17695  eV     1   --> G_3            
     e( 43 - 43) =      8.85350  eV     1   --> G_3            
     e( 44 - 44) =      8.85626  eV     1   --> G_4            
     e( 45 - 45) =      9.38867  eV     1   --> G_4            
     e( 46 - 46) =      9.39395  eV     1   --> G_3            
     e( 47 - 47) =      9.51132  eV     1   --> G_3            
     e( 48 - 48) =      9.52594  eV     1   --> G_4            
     e( 49 - 49) =      9.77866  eV     1   -->   ?
     e( 50 - 50) =      9.78446  eV     1   -->   ?

 **************************************************************************

 **************************************************************************

                    xk=(  -0.31746,   0.54986,   0.00000  )

     Band symmetry, C_s (m)     double point group:

     e(  1 -  2) =    -62.76263  eV     2   --> G_3            
     e(  1 -  2) =    -62.76263  eV     2   --> G_4            
     e(  3 -  3) =    -38.66991  eV     1   --> G_4            
     e(  4 -  4) =    -38.64641  eV     1   --> G_3            
     e(  5 -  5) =    -36.26042  eV     1   --> G_3            
     e(  6 -  6) =    -36.21298  eV     1   --> G_4            
     e(  7 -  7) =    -36.14691  eV     1   --> G_4            
     e(  8 -  8) =    -36.13245  eV     1   --> G_3            
     e(  9 -  9) =    -13.94486  eV     1   --> G_4            
     e( 10 - 10) =    -13.88324  eV     1   --> G_3            
     e( 11 - 11) =    -13.86228  eV     1   --> G_3            
     e( 12 - 12) =    -13.85837  eV     1   --> G_4            
     e( 13 - 13) =     -7.37991  eV     1   --> G_3            
     e( 14 - 14) =     -7.37291  eV     1   --> G_4            
     e( 15 - 15) =     -6.67117  eV     1   --> G_3            
     e( 16 - 16) =     -6.63628  eV     1   --> G_4            
     e( 17 - 17) =     -5.99691  eV     1   --> G_3            
     e( 18 - 18) =     -5.94374  eV     1   --> G_4            
     e( 19 - 19) =     -5.50410  eV     1   --> G_4            
     e( 20 - 20) =     -5.49105  eV     1   --> G_3            
     e( 21 - 21) =     -4.91291  eV     1   --> G_4            
     e( 22 - 22) =     -4.86601  eV     1   --> G_3            
     e( 23 - 23) =     -4.13835  eV     1   --> G_3            
     e( 24 - 24) =     -4.11841  eV     1   --> G_4            
     e( 25 - 25) =     -2.07419  eV     1   --> G_4            
     e( 26 - 26) =     -1.93059  eV     1   --> G_3            
     e( 27 - 27) =     -0.21182  eV     1   --> G_4            
     e( 28 - 28) =     -0.21090  eV     1   --> G_3            
     e( 29 - 29) =      1.05180  eV     1   --> G_4            
     e( 30 - 30) =      1.08229  eV     1   --> G_3            
     e( 31 - 31) =      1.49253  eV     1   --> G_3            
     e( 32 - 32) =      1.63375  eV     1   --> G_4            
     e( 33 - 33) =      2.88591  eV     1   --> G_3            
     e( 34 - 34) =      2.96787  eV     1   --> G_4            
     e( 35 - 35) =      5.18183  eV     1   --> G_3            
     e( 36 - 36) =      5.27579  eV     1   --> G_4            
     e( 37 - 37) =      5.68464  eV     1   --> G_3            
     e( 38 - 38) =      5.71303  eV     1   --> G_4            
     e( 39 - 39) =      7.56326  eV     1   --> G_4            
     e( 40 - 40) =      7.57118  eV     1   --> G_3            
     e( 41 - 41) =      8.36972  eV     1   --> G_4            
     e( 42 - 42) =      8.39782  eV     1   --> G_3            
     e( 43 - 43) =      9.10176  eV     1   --> G_4            
     e( 44 - 44) =      9.10533  eV     1   --> G_3            
     e( 45 - 45) =      9.59638  eV     1   --> G_3            
     e( 46 - 46) =      9.61176  eV     1   --> G_4            
     e( 47 - 47) =      9.69618  eV     1   --> G_4            
     e( 48 - 48) =      9.70870  eV     1   --> G_3            
     e( 49 - 49) =      9.79700  eV     1   --> G_4            
     e( 50 - 50) =      9.80166  eV     1   --> G_3            

 **************************************************************************

 **************************************************************************

                    xk=(  -0.33333,   0.57735,   0.00000  )

     double point group C_3h (-6)  
     there are 12 classes and  6 irreducible representations
     the character table:

       E     -E    C3    -C3   C3^2  -C3^2  s_h  -s_h   S3   -S3    S3^5 -S3^5
                                                                              
G_7    1.00 -1.00  0.50 -0.50  0.50 -0.50  0.00  0.00  0.87 -0.87  0.87 -0.87
G_8    1.00 -1.00  0.50 -0.50  0.50 -0.50  0.00  0.00  0.87 -0.87  0.87 -0.87
G_9    1.00 -1.00  0.50 -0.50  0.50 -0.50  0.00  0.00 -0.87  0.87 -0.87  0.87
G_10   1.00 -1.00  0.50 -0.50  0.50 -0.50  0.00  0.00 -0.87  0.87 -0.87  0.87
G_11   1.00 -1.00 -1.00  1.00 -1.00  1.00  0.00  0.00  0.00  0.00  0.00  0.00
G_12   1.00 -1.00 -1.00  1.00 -1.00  1.00  0.00  0.00  0.00  0.00  0.00  0.00

     imaginary part

       E     -E    C3    -C3   C3^2  -C3^2  s_h  -s_h   S3   -S3    S3^5 -S3^5
                                                                              
G_7    0.00  0.00  0.87 -0.87 -0.87  0.87  1.00 -1.00 -0.50  0.50  0.50 -0.50
G_8    0.00  0.00 -0.87  0.87  0.87 -0.87 -1.00  1.00  0.50 -0.50 -0.50  0.50
G_9    0.00  0.00  0.87 -0.87 -0.87  0.87 -1.00  1.00  0.50 -0.50 -0.50  0.50
G_10   0.00  0.00 -0.87  0.87  0.87 -0.87  1.00 -1.00 -0.50  0.50  0.50 -0.50
G_11   0.00  0.00  0.00  0.00  0.00  0.00 -1.00  1.00 -1.00  1.00  1.00 -1.00
G_12   0.00  0.00  0.00  0.00  0.00  0.00  1.00 -1.00  1.00 -1.00 -1.00  1.00

     the symmetry operations in each class and the name of the first element:

     E             1
                                                                 
     -E           -1
                                                                 
     C3            2
                                                                 
     -C3          -2
                                                                 
     C3^2          3
                                                                 
     -C3^2        -3
                                                                 
      s_h          4
                                                                 
     -s_h         -4
                                                                 
      S3           6
                                                                 
     -S3          -6
                                                                 
      S3^5         5
                                                                 
     -S3^5        -5
                                                                 

     Band symmetry, C_3h (-6)   double point group:

     e(  1 -  2) =    -62.76247  eV     2   --> G_9            
     e(  1 -  2) =    -62.76247  eV     2   --> G_12           
     e(  3 -  3) =    -38.67041  eV     1   --> G_11           
     e(  4 -  4) =    -38.64667  eV     1   --> G_7            
     e(  5 -  5) =    -36.26075  eV     1   --> G_10           
     e(  6 -  6) =    -36.21190  eV     1   --> G_8            
     e(  7 -  7) =    -36.14900  eV     1   --> G_11           
     e(  8 -  8) =    -36.13345  eV     1   --> G_7            
     e(  9 -  9) =    -13.93565  eV     1   --> G_11           
     e( 10 - 10) =    -13.87334  eV     1   --> G_10           
     e( 11 - 11) =    -13.85733  eV     1   --> G_12           
     e( 12 - 12) =    -13.85346  eV     1   --> G_8            
     e( 13 - 13) =     -7.39697  eV     1   --> G_10           
     e( 14 - 14) =     -7.39008  eV     1   --> G_9            
     e( 15 - 15) =     -6.59370  eV     1   --> G_12           
     e( 16 - 16) =     -6.55825  eV     1   --> G_9            
     e( 17 - 17) =     -6.08061  eV     1   --> G_7            
     e( 18 - 18) =     -6.02315  eV     1   --> G_8            
     e( 19 - 19) =     -5.52585  eV     1   --> G_11           
     e( 20 - 20) =     -5.50784  eV     1   --> G_10           
     e( 21 - 21) =     -4.88985  eV     1   --> G_11           
     e( 22 - 22) =     -4.83993  eV     1   --> G_7            
     e( 23 - 23) =     -4.16897  eV     1   --> G_12           
     e( 24 - 24) =     -4.14554  eV     1   --> G_8            
     e( 25 - 25) =     -2.04854  eV     1   --> G_8            
     e( 26 - 26) =     -1.90165  eV     1   --> G_7            
     e( 27 - 27) =     -0.24518  eV     1   --> G_12           
[...]
     e(  7 -  8) =    -36.04562  eV     2   --> G_5  D_5       
     e(  9 - 10) =    -15.24530  eV     2   --> G_5  D_5       
     e( 11 - 12) =    -14.44376  eV     2   --> G_5  D_5       
     e( 13 - 14) =     -6.96362  eV     2   --> G_5  D_5       
     e( 15 - 16) =     -5.76986  eV     2   --> G_5  D_5       
     e( 17 - 18) =     -5.55531  eV     2   --> G_5  D_5       
     e( 19 - 20) =     -4.42603  eV     2   --> G_5  D_5       
     e( 21 - 22) =     -3.71112  eV     2   --> G_5  D_5       
     e( 23 - 24) =     -3.31747  eV     2   --> G_5  D_5       
     e( 25 - 26) =     -2.71099  eV     2   --> G_5  D_5       
     e( 27 - 28) =      0.17660  eV     2   --> G_5  D_5       
     e( 29 - 30) =      0.40664  eV     2   --> G_5  D_5       
     e( 31 - 32) =      0.95578  eV     2   --> G_5  D_5       
     e( 33 - 34) =      1.83251  eV     2   --> G_5  D_5       
     e( 35 - 36) =      4.63216  eV     2   --> G_5  D_5       
     e( 37 - 38) =      4.76828  eV     2   --> G_5  D_5       
     e( 39 - 40) =      5.34633  eV     2   --> G_5  D_5       
     e( 41 - 42) =      5.86998  eV     2   --> G_5  D_5       
     e( 43 - 44) =      6.24827  eV     2   --> G_5  D_5       
     e( 45 - 46) =      6.78482  eV     2   --> G_5  D_5       
     e( 47 - 48) =      7.05037  eV     2   --> G_5  D_5       
     e( 49 - 50) =      7.55263  eV     2   --> G_5  D_5       

 **************************************************************************

 **************************************************************************

                    xk=(   0.00000,   0.25660,   0.00000  )

     Band symmetry, C_2v (mm2)  double point group:

     e(  1 -  2) =    -62.79069  eV     2   --> G_5  D_5       
     e(  3 -  4) =    -38.57803  eV     2   --> G_5  D_5       
     e(  5 -  6) =    -36.14049  eV     2   --> G_5  D_5       
     e(  7 -  8) =    -36.03445  eV     2   --> G_5  D_5       
     e(  9 - 10) =    -15.40253  eV     2   --> G_5  D_5       
     e( 11 - 12) =    -14.50878  eV     2   --> G_5  D_5       
     e( 13 - 14) =     -6.99598  eV     2   --> G_5  D_5       
     e( 15 - 16) =     -5.65372  eV     2   --> G_5  D_5       
     e( 17 - 18) =     -5.33672  eV     2   --> G_5  D_5       
     e( 19 - 20) =     -4.28425  eV     2   --> G_5  D_5       
     e( 21 - 22) =     -3.85611  eV     2   --> G_5  D_5       
     e( 23 - 24) =     -3.21345  eV     2   --> G_5  D_5       
     e( 25 - 26) =     -2.56561  eV     2   --> G_5  D_5       
     e( 27 - 28) =      0.17924  eV     2   --> G_5  D_5       
     e( 29 - 30) =      0.48246  eV     2   --> G_5  D_5       
     e( 31 - 32) =      0.81430  eV     2   --> G_5  D_5       
     e( 33 - 34) =      1.70216  eV     2   --> G_5  D_5       
     e( 35 - 36) =      4.42184  eV     2   --> G_5  D_5       
     e( 37 - 38) =      4.53885  eV     2   --> G_5  D_5       
     e( 39 - 40) =      5.09667  eV     2   --> G_5  D_5       
     e( 41 - 42) =      5.63414  eV     2   --> G_5  D_5       
     e( 43 - 44) =      6.08857  eV     2   --> G_5  D_5       
     e( 45 - 46) =      6.68403  eV     2   --> G_5  D_5       
     e( 47 - 48) =      7.07307  eV     2   --> G_5  D_5       
     e( 49 - 50) =      7.58739  eV     2   --> G_5  D_5       

 **************************************************************************

 **************************************************************************

                    xk=(   0.00000,   0.22453,   0.00000  )

     Band symmetry, C_2v (mm2)  double point group:

     e(  1 -  2) =    -62.79402  eV     2   --> G_5  D_5       
     e(  3 -  4) =    -38.56855  eV     2   --> G_5  D_5       
     e(  5 -  6) =    -36.12987  eV     2   --> G_5  D_5       
     e(  7 -  8) =    -36.02075  eV     2   --> G_5  D_5       
     e(  9 - 10) =    -15.54956  eV     2   --> G_5  D_5       
     e( 11 - 12) =    -14.56988  eV     2   --> G_5  D_5       
     e( 13 - 14) =     -7.07657  eV     2   --> G_5  D_5       
     e( 15 - 16) =     -5.49389  eV     2   --> G_5  D_5       
     e( 17 - 18) =     -5.11612  eV     2   --> G_5  D_5       
     e( 19 - 20) =     -4.13929  eV     2   --> G_5  D_5       
     e( 21 - 22) =     -3.99535  eV     2   --> G_5  D_5       
     e( 23 - 24) =     -3.12399  eV     2   --> G_5  D_5       
     e( 25 - 26) =     -2.42011  eV     2   --> G_5  D_5       
     e( 27 - 28) =      0.22337  eV     2   --> G_5  D_5       
     e( 29 - 30) =      0.56919  eV     2   --> G_5  D_5       
     e( 31 - 32) =      0.70524  eV     2   --> G_5  D_5       
     e( 33 - 34) =      1.56103  eV     2   --> G_5  D_5       
     e( 35 - 36) =      4.22528  eV     2   --> G_5  D_5       
     e( 37 - 38) =      4.32889  eV     2   --> G_5  D_5       
     e( 39 - 40) =      4.87426  eV     2   --> G_5  D_5       
     e( 41 - 42) =      5.41902  eV     2   --> G_5  D_5       
     e( 43 - 44) =      5.90390  eV     2   --> G_5  D_5       
     e( 45 - 46) =      6.44331  eV     2   --> G_5  D_5       
     e( 47 - 48) =      6.94367  eV     2   --> G_5  D_5       
     e( 49 - 50) =      7.61299  eV     2   --> G_5  D_5       

 **************************************************************************

 **************************************************************************

                    xk=(   0.00000,   0.19245,   0.00000  )

     Band symmetry, C_2v (mm2)  double point group:

     e(  1 -  2) =    -62.79714  eV     2   --> G_5  D_5       
     e(  3 -  4) =    -38.55977  eV     2   --> G_5  D_5       
     e(  5 -  6) =    -36.12200  eV     2   --> G_5  D_5       
     e(  7 -  8) =    -36.00545  eV     2   --> G_5  D_5       
     e(  9 - 10) =    -15.68316  eV     2   --> G_5  D_5       
     e( 11 - 12) =    -14.62559  eV     2   --> G_5  D_5       
     e( 13 - 14) =     -7.18173  eV     2   --> G_5  D_5       
     e( 15 - 16) =     -5.30926  eV     2   --> G_5  D_5       
     e( 17 - 18) =     -4.89590  eV     2   --> G_5  D_5       
     e( 19 - 20) =     -4.13304  eV     2   --> G_5  D_5       
     e( 21 - 22) =     -3.98579  eV     2   --> G_5  D_5       
     e( 23 - 24) =     -3.06279  eV     2   --> G_5  D_5       
     e( 25 - 26) =     -2.29163  eV     2   --> G_5  D_5       
     e( 27 - 28) =      0.31182  eV     2   --> G_5  D_5       
     e( 29 - 30) =      0.62396  eV     2   --> G_5  D_5       
     e( 31 - 32) =      0.67722  eV     2   --> G_5  D_5       
     e( 33 - 34) =      1.41395  eV     2   --> G_5  D_5       
     e( 35 - 36) =      4.04584  eV     2   --> G_5  D_5       
     e( 37 - 38) =      4.14222  eV     2   --> G_5  D_5       
     e( 39 - 40) =      4.67930  eV     2   --> G_5  D_5       
     e( 41 - 42) =      5.22904  eV     2   --> G_5  D_5       
     e( 43 - 44) =      5.69987  eV     2   --> G_5  D_5       
     e( 45 - 46) =      6.12879  eV     2   --> G_5  D_5       
     e( 47 - 48) =      6.78513  eV     2   --> G_5  D_5       
     e( 49 - 50) =      7.55682  eV     2   --> G_5  D_5       

 **************************************************************************

 **************************************************************************

                    xk=(   0.00000,   0.16038,   0.00000  )

     Band symmetry, C_2v (mm2)  double point group:

     e(  1 -  2) =    -62.79996  eV     2   --> G_5  D_5       
     e(  3 -  4) =    -38.55197  eV     2   --> G_5  D_5       
     e(  5 -  6) =    -36.11638  eV     2   --> G_5  D_5       
     e(  7 -  8) =    -35.98989  eV     2   --> G_5  D_5       
     e(  9 - 10) =    -15.80063  eV     2   --> G_5  D_5       
     e( 11 - 12) =    -14.67469  eV     2   --> G_5  D_5       
     e( 13 - 14) =     -7.29225  eV     2   --> G_5  D_5       
     e( 15 - 16) =     -5.11815  eV     2   --> G_5  D_5       
     e( 17 - 18) =     -4.67784  eV     2   --> G_5  D_5       
     e( 19 - 20) =     -4.24887  eV     2   --> G_5  D_5       
     e( 21 - 22) =     -3.84475  eV     2   --> G_5  D_5       
     e( 23 - 24) =     -3.04152  eV     2   --> G_5  D_5       
     e( 25 - 26) =     -2.19009  eV     2   --> G_5  D_5       
     e( 27 - 28) =      0.43921  eV     2   --> G_5  D_5       
     e( 29 - 30) =      0.61075  eV     2   --> G_5  D_5       
     e( 31 - 32) =      0.76688  eV     2   --> G_5  D_5       
     e( 33 - 34) =      1.26750  eV     2   --> G_5  D_5       
     e( 35 - 36) =      3.88547  eV     2   --> G_5  D_5       
     e( 37 - 38) =      3.98124  eV     2   --> G_5  D_5       
     e( 39 - 40) =      4.51176  eV     2   --> G_5  D_5       
     e( 41 - 42) =      5.06631  eV     2   --> G_5  D_5       
     e( 43 - 44) =      5.44923  eV     2   --> G_5  D_5       
     e( 45 - 46) =      5.84307  eV     2   --> G_5  D_5       
     e( 47 - 48) =      6.63776  eV     2   --> G_5  D_5       
     e( 49 - 50) =      7.45784  eV     2   --> G_5  D_5       

 **************************************************************************

 **************************************************************************

                    xk=(   0.00000,   0.12830,   0.00000  )

     Band symmetry, C_2v (mm2)  double point group:

     e(  1 -  2) =    -62.80239  eV     2   --> G_5  D_5       
     e(  3 -  4) =    -38.54530  eV     2   --> G_5  D_5       
     e(  5 -  6) =    -36.11242  eV     2   --> G_5  D_5       
     e(  7 -  8) =    -35.97533  eV     2   --> G_5  D_5       
     e(  9 - 10) =    -15.89975  eV     2   --> G_5  D_5       
     e( 11 - 12) =    -14.71616  eV     2   --> G_5  D_5       
     e( 13 - 14) =     -7.39510  eV     2   --> G_5  D_5       
     e( 15 - 16) =     -4.93622  eV     2   --> G_5  D_5       
     e( 17 - 18) =     -4.46576  eV     2   --> G_5  D_5       
     e( 19 - 20) =     -4.34618  eV     2   --> G_5  D_5       
     e( 21 - 22) =     -3.71313  eV     2   --> G_5  D_5       
     e( 23 - 24) =     -3.06638  eV     2   --> G_5  D_5       
     e( 25 - 26) =     -2.11746  eV     2   --> G_5  D_5       
     e( 27 - 28) =      0.58419  eV     2   --> G_5  D_5       
     e( 29 - 30) =      0.64540  eV     2   --> G_5  D_5       
     e( 31 - 32) =      0.85683  eV     2   --> G_5  D_5       
     e( 33 - 34) =      1.13023  eV     2   --> G_5  D_5       
     e( 35 - 36) =      3.74525  eV     2   --> G_5  D_5       
     e( 37 - 38) =      3.84758  eV     2   --> G_5  D_5       
     e( 39 - 40) =      4.37139  eV     2   --> G_5  D_5       
     e( 41 - 42) =      4.93200  eV     2   --> G_5  D_5       
     e( 43 - 44) =      5.14647  eV     2   --> G_5  D_5       
     e( 45 - 46) =      5.64698  eV     2   --> G_5  D_5       
     e( 47 - 48) =      6.51224  eV     2   --> G_5  D_5       
     e( 49 - 50) =      7.35855  eV     2   --> G_5  D_5       

 **************************************************************************

 **************************************************************************

                    xk=(   0.00000,   0.09623,   0.00000  )

     Band symmetry, C_2v (mm2)  double point group:

     e(  1 -  2) =    -62.80436  eV     2   --> G_5  D_5       
     e(  3 -  4) =    -38.53996  eV     2   --> G_5  D_5       
     e(  5 -  6) =    -36.10969  eV     2   --> G_5  D_5       
     e(  7 -  8) =    -35.96290  eV     2   --> G_5  D_5       
     e(  9 - 10) =    -15.97869  eV     2   --> G_5  D_5       
     e( 11 - 12) =    -14.74922  eV     2   --> G_5  D_5       
     e( 13 - 14) =     -7.48185  eV     2   --> G_5  D_5       
     e( 15 - 16) =     -4.77761  eV     2   --> G_5  D_5       
     e( 17 - 18) =     -4.43349  eV     2   --> G_5  D_5       
     e( 19 - 20) =     -4.24908  eV     2   --> G_5  D_5       
     e( 21 - 22) =     -3.59956  eV     2   --> G_5  D_5       
     e( 23 - 24) =     -3.13577  eV     2   --> G_5  D_5       
     e( 25 - 26) =     -2.07004  eV     2   --> G_5  D_5       
     e( 27 - 28) =      0.67462  eV     2   --> G_5  D_5       
     e( 29 - 30) =      0.77056  eV     2   --> G_5  D_5       
     e( 31 - 32) =      0.93195  eV     2   --> G_5  D_5       
     e( 33 - 34) =      1.01579  eV     2   --> G_5  D_5       
     e( 35 - 36) =      3.62628  eV     2   --> G_5  D_5       
     e( 37 - 38) =      3.74238  eV     2   --> G_5  D_5       
     e( 39 - 40) =      4.25768  eV     2   --> G_5  D_5       
     e( 41 - 42) =      4.82681  eV     2   --> G_5  D_5       
     e( 43 - 44) =      4.85328  eV     2   --> G_5  D_5       
     e( 45 - 46) =      5.51777  eV     2   --> G_5  D_5       
     e( 47 - 48) =      6.41251  eV     2   --> G_5  D_5       
     e( 49 - 50) =      7.27328  eV     2   --> G_5  D_5       

 **************************************************************************

 **************************************************************************

                    xk=(   0.00000,   0.06415,   0.00000  )

     Band symmetry, C_2v (mm2)  double point group:

     e(  1 -  2) =    -62.80581  eV     2   --> G_5  D_5       
     e(  3 -  4) =    -38.53609  eV     2   --> G_5  D_5       
     e(  5 -  6) =    -36.10793  eV     2   --> G_5  D_5       
     e(  7 -  8) =    -35.95347  eV     2   --> G_5  D_5       
     e(  9 - 10) =    -16.03607  eV     2   --> G_5  D_5       
     e( 11 - 12) =    -14.77325  eV     2   --> G_5  D_5       
     e( 13 - 14) =     -7.54706  eV     2   --> G_5  D_5       
     e( 15 - 16) =     -4.65617  eV     2   --> G_5  D_5       
     e( 17 - 18) =     -4.48807  eV     2   --> G_5  D_5       
     e( 19 - 20) =     -4.05173  eV     2   --> G_5  D_5       
     e( 21 - 22) =     -3.51274  eV     2   --> G_5  D_5       
     e( 23 - 24) =     -3.23945  eV     2   --> G_5  D_5       
     e( 25 - 26) =     -2.04185  eV     2   --> G_5  D_5       
     e( 27 - 28) =      0.73845  eV     2   --> G_5  D_5       
     e( 29 - 30) =      0.88815  eV     2   --> G_5  D_5       
     e( 31 - 32) =      0.93641  eV     2   --> G_5  D_5       
     e( 33 - 34) =      1.00733  eV     2   --> G_5  D_5       
     e( 35 - 36) =      3.53137  eV     2   --> G_5  D_5       
     e( 37 - 38) =      3.66651  eV     2   --> G_5  D_5       
     e( 39 - 40) =      4.17056  eV     2   --> G_5  D_5       
     e( 41 - 42) =      4.62210  eV     2   --> G_5  D_5       
     e( 43 - 44) =      4.75147  eV     2   --> G_5  D_5       
     e( 45 - 46) =      5.43180  eV     2   --> G_5  D_5       
     e( 47 - 48) =      6.34040  eV     2   --> G_5  D_5       
     e( 49 - 50) =      7.20852  eV     2   --> G_5  D_5       

 **************************************************************************

 **************************************************************************

                    xk=(   0.00000,   0.03208,   0.00000  )

     Band symmetry, C_2v (mm2)  double point group:

     e(  1 -  2) =    -62.80670  eV     2   --> G_5  D_5       
     e(  3 -  4) =    -38.53370  eV     2   --> G_5  D_5       
     e(  5 -  6) =    -36.10691  eV     2   --> G_5  D_5       
     e(  7 -  8) =    -35.94754  eV     2   --> G_5  D_5       
     e(  9 - 10) =    -16.07090  eV     2   --> G_5  D_5       
     e( 11 - 12) =    -14.78783  eV     2   --> G_5  D_5       
     e( 13 - 14) =     -7.58739  eV     2   --> G_5  D_5       
     e( 15 - 16) =     -4.58847  eV     2   --> G_5  D_5       
     e( 17 - 18) =     -4.51211  eV     2   --> G_5  D_5       
     e( 19 - 20) =     -3.87866  eV     2   --> G_5  D_5       
     e( 21 - 22) =     -3.46639  eV     2   --> G_5  D_5       
     e( 23 - 24) =     -3.34979  eV     2   --> G_5  D_5       
     e( 25 - 26) =     -2.02737  eV     2   --> G_5  D_5       
     e( 27 - 28) =      0.77551  eV     2   --> G_5  D_5       
     e( 29 - 30) =      0.86200  eV     2   --> G_5  D_5       
     e( 31 - 32) =      1.02082  eV     2   --> G_5  D_5       
     e( 33 - 34) =      1.04419  eV     2   --> G_5  D_5       
     e( 35 - 36) =      3.46740  eV     2   --> G_5  D_5       
     e( 37 - 38) =      3.62067  eV     2   --> G_5  D_5       
     e( 39 - 40) =      4.11279  eV     2   --> G_5  D_5       
     e( 41 - 42) =      4.47946  eV     2   --> G_5  D_5       
     e( 43 - 44) =      4.70606  eV     2   --> G_5  D_5       
     e( 45 - 46) =      5.38146  eV     2   --> G_5  D_5       
     e( 47 - 48) =      6.29684  eV     2   --> G_5  D_5       
     e( 49 - 50) =      7.14961  eV     2   --> G_5  D_5       

 **************************************************************************

 **************************************************************************

                    xk=(   0.00000,   0.00000,   0.00000  )

     double point group D_3h (-62m)
     there are  9 classes and  3 irreducible representations
     the character table:

       E     -E    2C3   -2C3   3C2'  s_h  2S3   -2S3   3s_v
                               -3C2' -s_h'             -3s_v
G_7    2.00 -2.00  1.00 -1.00  0.00  0.00  1.73 -1.73  0.00
G_8    2.00 -2.00  1.00 -1.00  0.00  0.00 -1.73  1.73  0.00
G_9    2.00 -2.00 -2.00  2.00  0.00  0.00  0.00  0.00  0.00

     the symmetry operations in each class and the name of the first element:

     E             1
                                                                 
     -E           -1
                                                                 
     2C3           3    4
                                                                 
     -2C3         -3   -4
                                                                 
      3C2'-3C2'    2   -6    5   -2   -5    6
                                                                 
      s_h -s_h'    7   -7
                                                                 
     2S3           9   10
                                                                 
     -2S3         -9  -10
                                                                 
      3s_v-3s_v    8   -8  -11  -12   11   12
                                                                 

     Band symmetry, D_3h (-62m) double point group:

     e(  1 -  2) =    -62.80700  eV     2   --> G_7            
     e(  3 -  4) =    -38.53294  eV     2   --> G_8            
     e(  5 -  6) =    -36.10662  eV     2   --> G_8            
     e(  7 -  8) =    -35.94557  eV     2   --> G_9            
     e(  9 - 10) =    -16.08257  eV     2   --> G_7            
     e( 11 - 12) =    -14.79272  eV     2   --> G_8            
     e( 13 - 14) =     -7.60103  eV     2   --> G_7            
     e( 15 - 16) =     -4.57549  eV     2   --> G_9            
     e( 17 - 18) =     -4.50983  eV     2   --> G_8            
     e( 19 - 20) =     -3.79177  eV     2   --> G_8            
     e( 21 - 22) =     -3.47584  eV     2   --> G_7            
     e( 23 - 24) =     -3.39081  eV     2   --> G_9            
     e( 25 - 26) =     -2.02296  eV     2   --> G_7            
     e( 27 - 28) =      0.77910  eV     2   --> G_7            
     e( 29 - 30) =      0.85812  eV     2   --> G_9            
     e( 31 - 32) =      1.05640  eV     2   --> G_8            
     e( 33 - 34) =      1.05792  eV     2   --> G_9            
     e( 35 - 36) =      3.44432  eV     2   --> G_7            
     e( 37 - 38) =      3.60532  eV     2   --> G_8            
     e( 39 - 40) =      4.09187  eV     2   --> G_7            
     e( 41 - 42) =      4.43220  eV     2   --> G_7            
     e( 43 - 44) =      4.69089  eV     2   --> G_8            
     e( 45 - 46) =      5.36480  eV     2   --> G_7            
     e( 47 - 48) =      6.28227  eV     2   --> G_8            
     e( 49 - 50) =      7.09310  eV     2   --> G_8            

 **************************************************************************

     BANDS        :   1m41.89s CPU   1m45.69s WALL


   This run was terminated on:  10:35:38  18Apr2024            

=------------------------------------------------------------------------------=
   JOB DONE.
=------------------------------------------------------------------------------=
