
     Program BANDS v.7.2 starts on 18Apr2024 at 10: 4:51 

     This program is part of the open-source Quantum ESPRESSO suite
     for quantum simulation of materials; please cite
         "P. Giannozzi et al., J. Phys.:Condens. Matter 21 395502 (2009);
         "P. Giannozzi et al., J. Phys.:Condens. Matter 29 465901 (2017);
         "P. Giannozzi et al., J. Chem. Phys. 152 154105 (2020);
          URL http://www.quantum-espresso.org", 
     in publications or presentations arising from this work. More details at
     http://www.quantum-espresso.org/quote

     Parallel version (MPI & OpenMP), running on       8 processor cores
     Number of MPI processes:                 8
     Threads/MPI process:                     1

     MPI processes distributed on     1 nodes
     R & G space division:  proc/nbgrp/npool/nimage =       8
     0 MiB available memory on the printing compute node when the environment starts


     Reading xml data from directory:

     ./tmp/MoS2_1L_pbe_vdW_nsoc.save/

     IMPORTANT: XC functional enforced from input :
     Exchange-correlation= VDW-DF2-B86R
                           (   1   4  26   0   2   0   0)
     Any further DFT definition will be discarded
     Please, verify this is what you really want


     Parallelization info
     --------------------
     sticks:   dense  smooth     PW     G-vecs:    dense   smooth      PW
     Min          85      85     24                14691    14691    2318
     Max          86      86     25                14716    14716    2353
     Sum         685     685    199               117663   117663   18769

     Using Slab Decomposition



     %%%%%%%%%%%%%%%%%%%%%%%%%%%%%%%%%%%%%%%%%%%%%%%%%%%%%%%%%%%%%%%%%%%%%%%%
     %                                                                      %
     % You are using vdW-DF, which was implemented by the Thonhauser group. %
     % Please cite the following two papers that made this development      %
     % possible and the two reviews that describe the various versions:     %
     %                                                                      %
     %   T. Thonhauser et al., PRL 115, 136402 (2015).                      %
     %   T. Thonhauser et al., PRB 76, 125112 (2007).                       %
     %   K. Berland et al., Rep. Prog. Phys. 78, 066501 (2015).             %
     %   D.C. Langreth et al., J. Phys.: Condens. Matter 21, 084203 (2009). %
     %                                                                      %
     % If you are calculating stress with vdW-DF, please also cite:         %
     %                                                                      %
     %   R. Sabatini et al., J. Phys.: Condens. Matter 24, 424209 (2012).   %
     %                                                                      %
     %%%%%%%%%%%%%%%%%%%%%%%%%%%%%%%%%%%%%%%%%%%%%%%%%%%%%%%%%%%%%%%%%%%%%%%%

     %%%%%%%%%%%%%%%%%%%%%%%%%%%%%%%%%%%%%%%%%%%%%%%%%%%%%%%%%%%%%%%%%%%%%%%%
     %                                                                      %
     %  vdW-DF NEWS:                                                        %
     %                                                                      %
     %  * vdW-DF3 is now available. DOI: 10.1021/acs.jctc.0c00471           %
     %    use with input_dft = 'vdW-DF3-opt1' or 'vdW-DF3-opt2'             %
     %                                                                      %
     %  * Unscreened and range-separated hybrid vdW-DF-cx functionals       %
     %    DOI: 10.1063/1.4986522 and 10.1088/1361-648X/ac2ad2               %
     %    use with input_dft = 'vdW-DF-cx0'    and 'vdW-DF-ahcx'            %
     %  * Unscreened and range-separated hybrid vdW-DF2-b86r functionals    %
     %    DOI: 10.1063/1.4986522 and DOI: 10.1103/PhysRevX.12.041003        %
     %    use with input_dft = 'vdW-DF2-br0' and 'vdW-DF2-ahbr'             %
     %                                                                      %
     %%%%%%%%%%%%%%%%%%%%%%%%%%%%%%%%%%%%%%%%%%%%%%%%%%%%%%%%%%%%%%%%%%%%%%%%


     Reading collected, re-writing distributed wavefunctions
     high-symmetry point:  0.0000 0.0000 0.0000   x coordinate   0.0000
     high-symmetry point: -0.3333 0.5774 0.0000   x coordinate   0.6667
     high-symmetry point:  0.0000 0.5774 0.0000   x coordinate   1.0000
     high-symmetry point:  0.0000 0.0000 0.0000   x coordinate   1.5773

     Plottable bands (eV) written to file Bande_MoS2_1L_pbe_vdW_nsoc.dat.gnu
     Bands written to file Bande_MoS2_1L_pbe_vdW_nsoc.dat

 **************************************************************************

                    xk=(   0.00000,   0.00000,   0.00000  )

     point group D_3h (-62m)
     there are  6 classes
     the character table:

       E     2C3   3C2   s_h   2S3   3s_v 
A'_1   1.00  1.00  1.00  1.00  1.00  1.00
A'_2   1.00  1.00 -1.00  1.00  1.00 -1.00
E'     2.00 -1.00  0.00  2.00 -1.00  0.00
A''1   1.00  1.00  1.00 -1.00 -1.00 -1.00
A''2   1.00  1.00 -1.00 -1.00 -1.00  1.00
E''    2.00 -1.00  0.00 -2.00  1.00  0.00

     the symmetry operations in each class and the name of the first element:

     E        1
                                                                 
     2C3      3    4
                                                                 
     3C2      2    6    5
                                                                 
     s_h      7
                                                                 
     2S3      9   10
                                                                 
     3s_v     8   11   12
                                                                 

     Band symmetry, D_3h (-62m) point group:

     e(  1 -  1) =    -62.95980  eV     1   --> A'_1           
     e(  2 -  2) =    -37.12363  eV     1   --> A''2           
     e(  3 -  4) =    -36.89539  eV     2   --> E'             
     e(  5 -  5) =    -16.22955  eV     1   --> A'_1           
     e(  6 -  6) =    -14.94189  eV     1   --> A''2           
     e(  7 -  7) =     -7.75049  eV     1   --> A'_1           
     e(  8 -  9) =     -4.71528  eV     2   --> E'             
     e( 10 - 10) =     -3.97712  eV     1   --> A''2           
     e( 11 - 12) =     -3.60121  eV     2   --> E''            
     e( 13 - 13) =     -2.22489  eV     1   --> A'_1           
     e( 14 - 15) =      0.66052  eV     2   --> E''            
     e( 16 - 17) =      0.88463  eV     2   --> E'             
     e( 18 - 18) =      3.08228  eV     1   --> A'_1           
     e( 19 - 19) =      3.26146  eV     1   --> A''2           
     e( 20 - 20) =      4.08199  eV     1   --> A'_1           
     e( 21 - 21) =      4.30271  eV     1   --> A'_1           
     e( 22 - 22) =      4.63021  eV     1   --> A''2           
     e( 23 - 23) =      5.29615  eV     1   --> A'_1           
     e( 24 - 24) =      6.20950  eV     1   --> A''2           
     e( 25 - 25) =      6.98488  eV     1   --> A''2           
     e( 26 - 26) =      7.09009  eV     1   --> A'_1           
     e( 27 - 27) =      8.42823  eV     1   --> A''2           
     e( 28 - 29) =      8.68467  eV     2   --> E'             
     e( 30 - 30) =      9.25541  eV     1   --> A'_1           
     e( 31 - 32) =     10.65481  eV     2   --> E''            
     e( 33 - 33) =     10.72554  eV     1   --> A'_1           
     e( 34 - 34) =     11.16417  eV     1   --> A''2           
     e( 35 - 35) =     12.33289  eV     1   --> A'_1           
     e( 36 - 37) =     13.85942  eV     2   --> E''            
     e( 38 - 38) =     14.07197  eV     1   --> A''2           
     e( 39 - 40) =     14.12012  eV     2   --> E'             
     e( 41 - 41) =     14.55524  eV     1   --> A''2           
     e( 42 - 42) =     14.91268  eV     1   --> A'_1           
     e( 43 - 43) =     17.00632  eV     1   --> A'_1           
     e( 44 - 44) =     17.57321  eV     1   --> A''2           
     e( 45 - 45) =     18.28823  eV     1   --> A''2           
     e( 46 - 46) =     18.93320  eV     1   --> A'_1           
     e( 47 - 48) =     20.61948  eV     2   --> E'             
     e( 49 - 49) =     21.82505  eV     1   --> A'_1           
     e( 50 - 51) =     22.02507  eV     2   --> E''            
     e( 52 - 52) =     22.24508  eV     1   --> A''2           
     e( 53 - 53) =     22.62705  eV     1   --> A''2           
     e( 54 - 55) =     22.69818  eV     2   --> E'             
     e( 56 - 56) =     22.78693  eV     1   --> A'_1           
     e( 57 - 58) =     22.83887  eV     2   --> E''            
     e( 59 - 59) =     23.28957  eV     1   --> A'_1           
     e( 60 - 60) =     23.42353  eV     1   --> A''2           

 **************************************************************************

 **************************************************************************

                    xk=(  -0.01587,   0.02749,   0.00000  )

     point group C_s (m)    
     there are  2 classes
     the character table:

       E     s    
A'     1.00  1.00
A''    1.00 -1.00

     the symmetry operations in each class and the name of the first element:

     E        1
                                                                 
     s        2
                                                                 

     Band symmetry, C_s (m)     point group:

     e(  1 -  1) =    -62.95951  eV     1   --> A'             
     e(  2 -  2) =    -37.12303  eV     1   --> A''            
     e(  3 -  3) =    -36.89832  eV     1   --> A'             
     e(  4 -  4) =    -36.89602  eV     1   --> A'             
     e(  5 -  5) =    -16.21812  eV     1   --> A'             
     e(  6 -  6) =    -14.93714  eV     1   --> A''            
     e(  7 -  7) =     -7.73704  eV     1   --> A'             
     e(  8 -  8) =     -4.74185  eV     1   --> A'             
     e(  9 -  9) =     -4.70320  eV     1   --> A'             
     e( 10 - 10) =     -4.05938  eV     1   --> A''            
     e( 11 - 11) =     -3.62052  eV     1   --> A''            
     e( 12 - 12) =     -3.53468  eV     1   --> A''            
     e( 13 - 13) =     -2.22859  eV     1   --> A'             
     e( 14 - 14) =      0.64082  eV     1   --> A''            
     e( 15 - 15) =      0.68144  eV     1   --> A''            
     e( 16 - 16) =      0.84649  eV     1   --> A'             
     e( 17 - 17) =      0.87112  eV     1   --> A'             
     e( 18 - 18) =      3.10601  eV     1   --> A'             
     e( 19 - 19) =      3.27658  eV     1   --> A''            
     e( 20 - 20) =      4.10466  eV     1   --> A'             
     e( 21 - 21) =      4.34708  eV     1   --> A'             
     e( 22 - 22) =      4.64511  eV     1   --> A''            
     e( 23 - 23) =      5.31217  eV     1   --> A'             
     e( 24 - 24) =      6.22381  eV     1   --> A''            
     e( 25 - 25) =      7.03992  eV     1   --> A''            
     e( 26 - 26) =      7.10350  eV     1   --> A'             
     e( 27 - 27) =      8.44144  eV     1   --> A''            
     e( 28 - 28) =      8.63223  eV     1   --> A'             
     e( 29 - 29) =      8.72104  eV     1   --> A'             
     e( 30 - 30) =      9.29133  eV     1   --> A'             
     e( 31 - 31) =     10.55374  eV     1   --> A''            
     e( 32 - 32) =     10.65834  eV     1   --> A''            
     e( 33 - 33) =     10.72629  eV     1   --> A'             
     e( 34 - 34) =     11.17883  eV     1   --> A''            
     e( 35 - 35) =     12.33246  eV     1   --> A'             
     e( 36 - 36) =     13.76120  eV     1   --> A''            
     e( 37 - 37) =     13.87743  eV     1   --> A''            
     e( 38 - 38) =     14.07733  eV     1   --> A'             
     e( 39 - 39) =     14.10844  eV     1   --> A'             
     e( 40 - 40) =     14.16172  eV     1   --> A''            
     e( 41 - 41) =     14.62356  eV     1   --> A''            
     e( 42 - 42) =     14.94785  eV     1   --> A'             
     e( 43 - 43) =     17.03868  eV     1   --> A'             
     e( 44 - 44) =     17.68653  eV     1   --> A''            
     e( 45 - 45) =     18.30479  eV     1   --> A''            
     e( 46 - 46) =     18.91805  eV     1   --> A'             
     e( 47 - 47) =     20.52542  eV     1   --> A'             
     e( 48 - 48) =     20.64827  eV     1   --> A'             
     e( 49 - 49) =     21.37660  eV     1   --> A''            
     e( 50 - 50) =     21.76567  eV     1   --> A''            
     e( 51 - 51) =     21.83492  eV     1   --> A'             
     e( 52 - 52) =     22.10000  eV     1   --> A'             
     e( 53 - 53) =     22.35931  eV     1   --> A''            
     e( 54 - 54) =     22.45485  eV     1   --> A'             
     e( 55 - 55) =     22.59669  eV     1   --> A''            
     e( 56 - 56) =     22.75971  eV     1   --> A''            
     e( 57 - 57) =     22.99956  eV     1   --> A'             
     e( 58 - 58) =     23.12923  eV     1   --> A'             
     e( 59 - 59) =     23.20615  eV     1   --> A''            
     e( 60 - 60) =     23.21618  eV     1   --> A'             

 **************************************************************************

 **************************************************************************

                    xk=(  -0.03175,   0.05499,   0.00000  )

     Band symmetry, C_s (m)     point group:

     e(  1 -  1) =    -62.95864  eV     1   --> A'             
     e(  2 -  2) =    -37.12132  eV     1   --> A''            
     e(  3 -  3) =    -36.90714  eV     1   --> A'             
     e(  4 -  4) =    -36.89806  eV     1   --> A'             
     e(  5 -  5) =    -16.18402  eV     1   --> A'             
     e(  6 -  6) =    -14.92297  eV     1   --> A''            
     e(  7 -  7) =     -7.69724  eV     1   --> A'             
     e(  8 -  8) =     -4.81910  eV     1   --> A'             
     e(  9 -  9) =     -4.66734  eV     1   --> A'             
     e( 10 - 10) =     -4.22688  eV     1   --> A''            
     e( 11 - 11) =     -3.67909  eV     1   --> A''            
     e( 12 - 12) =     -3.41366  eV     1   --> A''            
     e( 13 - 13) =     -2.24091  eV     1   --> A'             
     e( 14 - 14) =      0.58738  eV     1   --> A''            
     e( 15 - 15) =      0.74170  eV     1   --> A'             
     e( 16 - 16) =      0.74299  eV     1   --> A''            
     e( 17 - 17) =      0.83117  eV     1   --> A'             
     e( 18 - 18) =      3.17176  eV     1   --> A'             
     e( 19 - 19) =      3.32169  eV     1   --> A''            
     e( 20 - 20) =      4.16388  eV     1   --> A'             
     e( 21 - 21) =      4.48499  eV     1   --> A'             
     e( 22 - 22) =      4.68975  eV     1   --> A''            
     e( 23 - 23) =      5.36045  eV     1   --> A'             
     e( 24 - 24) =      6.26664  eV     1   --> A''            
     e( 25 - 25) =      7.14299  eV     1   --> A'             
     e( 26 - 26) =      7.19777  eV     1   --> A''            
     e( 27 - 27) =      8.48036  eV     1   --> A''            
     e( 28 - 28) =      8.50459  eV     1   --> A'             
     e( 29 - 29) =      8.82650  eV     1   --> A'             
     e( 30 - 30) =      9.37632  eV     1   --> A'             
     e( 31 - 31) =     10.29411  eV     1   --> A''            
     e( 32 - 32) =     10.66719  eV     1   --> A''            
     e( 33 - 33) =     10.72127  eV     1   --> A'             
     e( 34 - 34) =     11.21927  eV     1   --> A''            
     e( 35 - 35) =     12.33273  eV     1   --> A'             
     e( 36 - 36) =     13.52481  eV     1   --> A''            
     e( 37 - 37) =     13.91876  eV     1   --> A''            
     e( 38 - 38) =     13.94506  eV     1   --> A'             
     e( 39 - 39) =     14.08469  eV     1   --> A'             
     e( 40 - 40) =     14.35374  eV     1   --> A''            
     e( 41 - 41) =     14.85262  eV     1   --> A''            
     e( 42 - 42) =     15.04898  eV     1   --> A'             
     e( 43 - 43) =     17.13599  eV     1   --> A'             
     e( 44 - 44) =     17.99213  eV     1   --> A''            
     e( 45 - 45) =     18.35551  eV     1   --> A''            
     e( 46 - 46) =     18.86824  eV     1   --> A'             
     e( 47 - 47) =     20.31456  eV     1   --> A'             
     e( 48 - 48) =     20.56496  eV     1   --> A''            
     e( 49 - 49) =     20.66440  eV     1   --> A'             
     e( 50 - 50) =     21.11341  eV     1   --> A''            
     e( 51 - 51) =     21.26106  eV     1   --> A'             
     e( 52 - 52) =     21.86125  eV     1   --> A'             
     e( 53 - 53) =     22.16435  eV     1   --> A'             
     e( 54 - 54) =     22.25293  eV     1   --> A'             
     e( 55 - 55) =     22.30854  eV     1   --> A'             
     e( 56 - 56) =     22.35421  eV     1   --> A''            
     e( 57 - 57) =     22.44756  eV     1   --> A''            
     e( 58 - 58) =     22.54018  eV     1   --> A''            
     e( 59 - 59) =     22.82048  eV     1   --> A''            
     e( 60 - 60) =     22.84264  eV     1   --> A''            

 **************************************************************************

 **************************************************************************

                    xk=(  -0.04762,   0.08248,   0.00000  )

     Band symmetry, C_s (m)     point group:

     e(  1 -  1) =    -62.95721  eV     1   --> A'             
     e(  2 -  2) =    -37.11849  eV     1   --> A''            
     e(  3 -  3) =    -36.92136  eV     1   --> A'             
     e(  4 -  4) =    -36.90146  eV     1   --> A'             
     e(  5 -  5) =    -16.12781  eV     1   --> A'             
     e(  6 -  6) =    -14.89962  eV     1   --> A''            
     e(  7 -  7) =     -7.63279  eV     1   --> A'             
     e(  8 -  8) =     -4.94010  eV     1   --> A'             
     e(  9 -  9) =     -4.60879  eV     1   --> A'             
     e( 10 - 10) =     -4.41796  eV     1   --> A''            
     e( 11 - 11) =     -3.77825  eV     1   --> A''            
     e( 12 - 12) =     -3.29751  eV     1   --> A''            
     e( 13 - 13) =     -2.26536  eV     1   --> A'             
     e( 14 - 14) =      0.51476  eV     1   --> A''            
     e( 15 - 15) =      0.59331  eV     1   --> A'             
     e( 16 - 16) =      0.76689  eV     1   --> A'             
     e( 17 - 17) =      0.84190  eV     1   --> A''            
     e( 18 - 18) =      3.26891  eV     1   --> A'             
     e( 19 - 19) =      3.39616  eV     1   --> A''            
     e( 20 - 20) =      4.24954  eV     1   --> A'             
     e( 21 - 21) =      4.71409  eV     1   --> A'             
     e( 22 - 22) =      4.76397  eV     1   --> A''            
     e( 23 - 23) =      5.44210  eV     1   --> A'             
     e( 24 - 24) =      6.33762  eV     1   --> A''            
     e( 25 - 25) =      7.20650  eV     1   --> A'             
     e( 26 - 26) =      7.43803  eV     1   --> A''            
     e( 27 - 27) =      8.34479  eV     1   --> A'             
     e( 28 - 28) =      8.54217  eV     1   --> A''            
     e( 29 - 29) =      8.98947  eV     1   --> A'             
     e( 30 - 30) =      9.48452  eV     1   --> A'             
     e( 31 - 31) =      9.95629  eV     1   --> A''            
     e( 32 - 32) =     10.67580  eV     1   --> A''            
     e( 33 - 33) =     10.69578  eV     1   --> A'             
     e( 34 - 34) =     11.28318  eV     1   --> A''            
     e( 35 - 35) =     12.33786  eV     1   --> A'             
     e( 36 - 36) =     13.23911  eV     1   --> A''            
     e( 37 - 37) =     13.71925  eV     1   --> A'             
     e( 38 - 38) =     13.97712  eV     1   --> A''            
     e( 39 - 39) =     14.07113  eV     1   --> A'             
     e( 40 - 40) =     14.52113  eV     1   --> A''            
     e( 41 - 41) =     15.20660  eV     1   --> A'             
     e( 42 - 42) =     15.27922  eV     1   --> A''            
     e( 43 - 43) =     17.29598  eV     1   --> A'             
     e( 44 - 44) =     18.37981  eV     1   --> A''            
     e( 45 - 45) =     18.47384  eV     1   --> A''            
     e( 46 - 46) =     18.76977  eV     1   --> A'             
     e( 47 - 47) =     19.77202  eV     1   --> A''            
     e( 48 - 48) =     20.04851  eV     1   --> A'             
     e( 49 - 49) =     20.22691  eV     1   --> A'             
     e( 50 - 50) =     20.37983  eV     1   --> A''            
     e( 51 - 51) =     21.06119  eV     1   --> A'             
     e( 52 - 52) =     21.23590  eV     1   --> A'             
     e( 53 - 53) =     21.36996  eV     1   --> A'             
     e( 54 - 54) =     21.54943  eV     1   --> A'             
     e( 55 - 55) =     21.67095  eV     1   --> A''            
     e( 56 - 56) =     21.78902  eV     1   --> A''            
     e( 57 - 57) =     22.34497  eV     1   --> A'             
     e( 58 - 58) =     22.45115  eV     1   --> A''            
     e( 59 - 59) =     22.49037  eV     1   --> A'             
     e( 60 - 60) =     22.53276  eV     1   --> A'             

 **************************************************************************

 **************************************************************************

                    xk=(  -0.06349,   0.10997,   0.00000  )

     Band symmetry, C_s (m)     point group:

     e(  1 -  1) =    -62.95527  eV     1   --> A'             
     e(  2 -  2) =    -37.11466  eV     1   --> A''            
     e(  3 -  3) =    -36.94058  eV     1   --> A'             
     e(  4 -  4) =    -36.90623  eV     1   --> A'             
     e(  5 -  5) =    -16.05045  eV     1   --> A'             
     e(  6 -  6) =    -14.86748  eV     1   --> A''            
     e(  7 -  7) =     -7.54667  eV     1   --> A'             
     e(  8 -  8) =     -5.09467  eV     1   --> A'             
     e(  9 -  9) =     -4.61384  eV     1   --> A''            
     e( 10 - 10) =     -4.52962  eV     1   --> A'             
     e( 11 - 11) =     -3.91880  eV     1   --> A''            
     e( 12 - 12) =     -3.20148  eV     1   --> A''            
     e( 13 - 13) =     -2.30719  eV     1   --> A'             
     e( 14 - 14) =      0.42702  eV     1   --> A'             
     e( 15 - 15) =      0.44076  eV     1   --> A''            
     e( 16 - 16) =      0.68236  eV     1   --> A'             
     e( 17 - 17) =      0.97276  eV     1   --> A''            
     e( 18 - 18) =      3.38978  eV     1   --> A'             
     e( 19 - 19) =      3.49917  eV     1   --> A''            
     e( 20 - 20) =      4.36068  eV     1   --> A'             
     e( 21 - 21) =      4.86754  eV     1   --> A''            
     e( 22 - 22) =      5.01379  eV     1   --> A'             
     e( 23 - 23) =      5.56149  eV     1   --> A'             
     e( 24 - 24) =      6.43608  eV     1   --> A''            
     e( 25 - 25) =      7.29035  eV     1   --> A'             
     e( 26 - 26) =      7.72867  eV     1   --> A''            
     e( 27 - 27) =      8.18023  eV     1   --> A'             
     e( 28 - 28) =      8.61820  eV     1   --> A''            
     e( 29 - 29) =      9.18733  eV     1   --> A'             
     e( 30 - 30) =      9.60862  eV     1   --> A'             
     e( 31 - 31) =      9.61143  eV     1   --> A''            
     e( 32 - 32) =     10.64583  eV     1   --> A'             
     e( 33 - 33) =     10.67376  eV     1   --> A''            
     e( 34 - 34) =     11.37130  eV     1   --> A''            
     e( 35 - 35) =     12.35022  eV     1   --> A'             
     e( 36 - 36) =     12.97261  eV     1   --> A''            
     e( 37 - 37) =     13.40594  eV     1   --> A'             
     e( 38 - 38) =     14.04916  eV     1   --> A''            
     e( 39 - 39) =     14.08503  eV     1   --> A'             
     e( 40 - 40) =     14.66906  eV     1   --> A''            
     e( 41 - 41) =     15.41154  eV     1   --> A'             
     e( 42 - 42) =     15.83610  eV     1   --> A''            
     e( 43 - 43) =     17.50091  eV     1   --> A'             
     e( 44 - 44) =     18.52263  eV     1   --> A''            
     e( 45 - 45) =     18.60130  eV     1   --> A'             
     e( 46 - 46) =     18.83257  eV     1   --> A''            
     e( 47 - 47) =     19.03162  eV     1   --> A''            
     e( 48 - 48) =     19.44138  eV     1   --> A'             
     e( 49 - 49) =     19.73627  eV     1   --> A''            
     e( 50 - 50) =     19.82844  eV     1   --> A'             
     e( 51 - 51) =     20.49043  eV     1   --> A'             
     e( 52 - 52) =     20.52618  eV     1   --> A'             
     e( 53 - 53) =     20.84511  eV     1   --> A''            
     e( 54 - 54) =     20.93798  eV     1   --> A'             
     e( 55 - 55) =     20.99612  eV     1   --> A''            
     e( 56 - 56) =     21.34640  eV     1   --> A'             
     e( 57 - 57) =     21.61738  eV     1   --> A'             
     e( 58 - 58) =     21.77659  eV     1   --> A'             
     e( 59 - 59) =     22.08115  eV     1   --> A''            
     e( 60 - 60) =     22.30139  eV     1   --> A''            

 **************************************************************************

 **************************************************************************

                    xk=(  -0.07936,   0.13746,   0.00000  )

     Band symmetry, C_s (m)     point group:

     e(  1 -  1) =    -62.95288  eV     1   --> A'             
     e(  2 -  2) =    -37.10992  eV     1   --> A''            
     e(  3 -  3) =    -36.96391  eV     1   --> A'             
     e(  4 -  4) =    -36.91236  eV     1   --> A'             
     e(  5 -  5) =    -15.95323  eV     1   --> A'             
     e(  6 -  6) =    -14.82710  eV     1   --> A''            
     e(  7 -  7) =     -7.44345  eV     1   --> A'             
     e(  8 -  8) =     -5.27062  eV     1   --> A'             
     e(  9 -  9) =     -4.80594  eV     1   --> A''            
     e( 10 - 10) =     -4.43331  eV     1   --> A'             
     e( 11 - 11) =     -4.09941  eV     1   --> A''            
     e( 12 - 12) =     -3.12989  eV     1   --> A''            
     e( 13 - 13) =     -2.37196  eV     1   --> A'             
     e( 14 - 14) =      0.26438  eV     1   --> A'             
     e( 15 - 15) =      0.38104  eV     1   --> A''            
     e( 16 - 16) =      0.58454  eV     1   --> A'             
     e( 17 - 17) =      1.12842  eV     1   --> A''            
     e( 18 - 18) =      3.53114  eV     1   --> A'             
     e( 19 - 19) =      3.62983  eV     1   --> A''            
     e( 20 - 20) =      4.49887  eV     1   --> A'             
     e( 21 - 21) =      5.00019  eV     1   --> A''            
     e( 22 - 22) =      5.34666  eV     1   --> A'             
     e( 23 - 23) =      5.73449  eV     1   --> A'             
     e( 24 - 24) =      6.56090  eV     1   --> A''            
     e( 25 - 25) =      7.38711  eV     1   --> A'             
     e( 26 - 26) =      8.02106  eV     1   --> A''            
     e( 27 - 27) =      8.03021  eV     1   --> A'             
     e( 28 - 28) =      8.67998  eV     1   --> A''            
     e( 29 - 29) =      9.33994  eV     1   --> A''            
     e( 30 - 30) =      9.38040  eV     1   --> A'             
     e( 31 - 31) =      9.74452  eV     1   --> A'             
     e( 32 - 32) =     10.60114  eV     1   --> A'             
     e( 33 - 33) =     10.64716  eV     1   --> A''            
     e( 34 - 34) =     11.48632  eV     1   --> A''            
     e( 35 - 35) =     12.35583  eV     1   --> A'             
     e( 36 - 36) =     12.77755  eV     1   --> A''            
     e( 37 - 37) =     13.03365  eV     1   --> A'             
     e( 38 - 38) =     14.12866  eV     1   --> A''            
     e( 39 - 39) =     14.13462  eV     1   --> A'             
     e( 40 - 40) =     14.82878  eV     1   --> A''            
     e( 41 - 41) =     15.65724  eV     1   --> A'             
     e( 42 - 42) =     16.44939  eV     1   --> A''            
     e( 43 - 43) =     17.65572  eV     1   --> A'             
     e( 44 - 44) =     18.26135  eV     1   --> A''            
     e( 45 - 45) =     18.38433  eV     1   --> A'             
     e( 46 - 46) =     18.59486  eV     1   --> A''            
     e( 47 - 47) =     18.72232  eV     1   --> A'             
     e( 48 - 48) =     18.77845  eV     1   --> A''            
     e( 49 - 49) =     19.48483  eV     1   --> A'             
     e( 50 - 50) =     19.70745  eV     1   --> A''            
     e( 51 - 51) =     19.70964  eV     1   --> A'             
     e( 52 - 52) =     19.81627  eV     1   --> A'             
     e( 53 - 53) =     20.04984  eV     1   --> A''            
     e( 54 - 54) =     20.24201  eV     1   --> A''            
     e( 55 - 55) =     20.64849  eV     1   --> A'             
     e( 56 - 56) =     20.84488  eV     1   --> A'             
     e( 57 - 57) =     21.03541  eV     1   --> A'             
     e( 58 - 58) =     21.32670  eV     1   --> A''            
     e( 59 - 59) =     21.59220  eV     1   --> A'             
     e( 60 - 60) =     21.69581  eV     1   --> A''            

 **************************************************************************

 **************************************************************************

                    xk=(  -0.09524,   0.16496,   0.00000  )

     Band symmetry, C_s (m)     point group:

     e(  1 -  1) =    -62.95009  eV     1   --> A'             
     e(  2 -  2) =    -37.10446  eV     1   --> A''            
     e(  3 -  3) =    -36.99048  eV     1   --> A'             
     e(  4 -  4) =    -36.91989  eV     1   --> A'             
     e(  5 -  5) =    -15.83785  eV     1   --> A'             
     e(  6 -  6) =    -14.77918  eV     1   --> A''            
     e(  7 -  7) =     -7.32985  eV     1   --> A'             
     e(  8 -  8) =     -5.45439  eV     1   --> A'             
     e(  9 -  9) =     -4.98933  eV     1   --> A''            
     e( 10 - 10) =     -4.32543  eV     1   --> A'             
     e( 11 - 11) =     -4.31537  eV     1   --> A''            
     e( 12 - 12) =     -3.08368  eV     1   --> A''            
     e( 13 - 13) =     -2.46302  eV     1   --> A'             
     e( 14 - 14) =      0.11942  eV     1   --> A'             
     e( 15 - 15) =      0.34608  eV     1   --> A''            
     e( 16 - 16) =      0.48417  eV     1   --> A'             
     e( 17 - 17) =      1.30044  eV     1   --> A''            
     e( 18 - 18) =      3.69221  eV     1   --> A'             
     e( 19 - 19) =      3.78706  eV     1   --> A''            
     e( 20 - 20) =      4.66517  eV     1   --> A'             
     e( 21 - 21) =      5.16149  eV     1   --> A''            
     e( 22 - 22) =      5.64930  eV     1   --> A'             
     e( 23 - 23) =      6.00224  eV     1   --> A'             
     e( 24 - 24) =      6.71026  eV     1   --> A''            
     e( 25 - 25) =      7.47583  eV     1   --> A'             
     e( 26 - 26) =      7.91991  eV     1   --> A'             
     e( 27 - 27) =      8.21142  eV     1   --> A''            
     e( 28 - 28) =      8.69455  eV     1   --> A''            
     e( 29 - 29) =      9.26560  eV     1   --> A''            
     e( 30 - 30) =      9.51090  eV     1   --> A'             
     e( 31 - 31) =      9.87284  eV     1   --> A'             
     e( 32 - 32) =     10.58768  eV     1   --> A''            
     e( 33 - 33) =     10.63856  eV     1   --> A'             
     e( 34 - 34) =     11.63370  eV     1   --> A''            
     e( 35 - 35) =     12.25607  eV     1   --> A'             
     e( 36 - 36) =     12.68600  eV     1   --> A''            
     e( 37 - 37) =     12.72031  eV     1   --> A'             
     e( 38 - 38) =     14.20785  eV     1   --> A''            
     e( 39 - 39) =     14.22175  eV     1   --> A'             
     e( 40 - 40) =     15.01261  eV     1   --> A''            
     e( 41 - 41) =     15.93976  eV     1   --> A'             
     e( 42 - 42) =     17.03343  eV     1   --> A''            
     e( 43 - 43) =     17.46593  eV     1   --> A'             
     e( 44 - 44) =     17.65995  eV     1   --> A''            
     e( 45 - 45) =     17.91955  eV     1   --> A'             
     e( 46 - 46) =     17.99121  eV     1   --> A''            
     e( 47 - 47) =     18.50920  eV     1   --> A'             
     e( 48 - 48) =     18.87573  eV     1   --> A'             
     e( 49 - 49) =     18.91486  eV     1   --> A''            
     e( 50 - 50) =     18.93288  eV     1   --> A'             
     e( 51 - 51) =     19.28608  eV     1   --> A''            
     e( 52 - 52) =     19.40573  eV     1   --> A''            
     e( 53 - 53) =     19.41978  eV     1   --> A'             
     e( 54 - 54) =     20.03847  eV     1   --> A'             
     e( 55 - 55) =     20.24146  eV     1   --> A''            
     e( 56 - 56) =     20.28702  eV     1   --> A'             
     e( 57 - 57) =     20.59726  eV     1   --> A''            
     e( 58 - 58) =     20.73926  eV     1   --> A'             
     e( 59 - 59) =     21.01775  eV     1   --> A''            
     e( 60 - 60) =     21.64629  eV     1   --> A'             

 **************************************************************************

 **************************************************************************

                    xk=(  -0.11111,   0.19245,   0.00000  )

     Band symmetry, C_s (m)     point group:

     e(  1 -  1) =    -62.94701  eV     1   --> A'             
     e(  2 -  2) =    -37.09836  eV     1   --> A''            
     e(  3 -  3) =    -37.01927  eV     1   --> A'             
     e(  4 -  4) =    -36.92881  eV     1   --> A'             
     e(  5 -  5) =    -15.70636  eV     1   --> A'             
     e(  6 -  6) =    -14.72458  eV     1   --> A''            
     e(  7 -  7) =     -7.21576  eV     1   --> A'             
     e(  8 -  8) =     -5.63076  eV     1   --> A'             
     e(  9 -  9) =     -5.16190  eV     1   --> A''            
     e( 10 - 10) =     -4.55773  eV     1   --> A''            
     e( 11 - 11) =     -4.21492  eV     1   --> A'             
     e( 12 - 12) =     -3.06259  eV     1   --> A''            
     e( 13 - 13) =     -2.57810  eV     1   --> A'             
     e( 14 - 14) =     -0.00299  eV     1   --> A'             
     e( 15 - 15) =      0.34072  eV     1   --> A''            
     e( 16 - 16) =      0.39598  eV     1   --> A'             
     e( 17 - 17) =      1.47970  eV     1   --> A''            
     e( 18 - 18) =      3.87284  eV     1   --> A'             
     e( 19 - 19) =      3.96949  eV     1   --> A''            
     e( 20 - 20) =      4.86011  eV     1   --> A'             
     e( 21 - 21) =      5.35095  eV     1   --> A''            
     e( 22 - 22) =      5.89484  eV     1   --> A'             
     e( 23 - 23) =      6.36635  eV     1   --> A'             
     e( 24 - 24) =      6.88091  eV     1   --> A''            
     e( 25 - 25) =      7.50217  eV     1   --> A'             
     e( 26 - 26) =      7.90410  eV     1   --> A'             
     e( 27 - 27) =      8.14756  eV     1   --> A''            
     e( 28 - 28) =      8.78935  eV     1   --> A''            
     e( 29 - 29) =      9.39390  eV     1   --> A''            
     e( 30 - 30) =      9.53192  eV     1   --> A'             
     e( 31 - 31) =      9.98575  eV     1   --> A'             
     e( 32 - 32) =     10.50671  eV     1   --> A''            
     e( 33 - 33) =     10.80641  eV     1   --> A'             
     e( 34 - 34) =     11.81921  eV     1   --> A''            
     e( 35 - 35) =     11.89900  eV     1   --> A'             
     e( 36 - 36) =     12.65575  eV     1   --> A'             
     e( 37 - 37) =     12.69695  eV     1   --> A''            
     e( 38 - 38) =     14.28021  eV     1   --> A''            
     e( 39 - 39) =     14.34567  eV     1   --> A'             
     e( 40 - 40) =     15.22267  eV     1   --> A''            
     e( 41 - 41) =     16.25632  eV     1   --> A'             
     e( 42 - 42) =     16.92061  eV     1   --> A''            
     e( 43 - 43) =     16.97123  eV     1   --> A'             
     e( 44 - 44) =     17.23406  eV     1   --> A'             
     e( 45 - 45) =     17.30073  eV     1   --> A''            
     e( 46 - 46) =     17.81535  eV     1   --> A''            
     e( 47 - 47) =     18.13955  eV     1   --> A'             
     e( 48 - 48) =     18.17965  eV     1   --> A'             
     e( 49 - 49) =     18.54877  eV     1   --> A''            
     e( 50 - 50) =     18.66182  eV     1   --> A''            
     e( 51 - 51) =     18.79192  eV     1   --> A'             
     e( 52 - 52) =     19.04338  eV     1   --> A'             
     e( 53 - 53) =     19.18958  eV     1   --> A''            
     e( 54 - 54) =     19.31199  eV     1   --> A'             
     e( 55 - 55) =     19.87532  eV     1   --> A'             
     e( 56 - 56) =     19.88447  eV     1   --> A''            
     e( 57 - 57) =     20.21259  eV     1   --> A''            
     e( 58 - 58) =     20.71719  eV     1   --> A'             
     e( 59 - 59) =     20.85780  eV     1   --> A''            
     e( 60 - 60) =     21.01274  eV     1   --> A'             

 **************************************************************************

 **************************************************************************

                    xk=(  -0.12698,   0.21994,   0.00000  )

     Band symmetry, C_s (m)     point group:

     e(  1 -  1) =    -62.94370  eV     1   --> A'             
     e(  2 -  2) =    -37.09186  eV     1   --> A''            
     e(  3 -  3) =    -37.04923  eV     1   --> A'             
     e(  4 -  4) =    -36.93908  eV     1   --> A'             
     e(  5 -  5) =    -15.56119  eV     1   --> A'             
     e(  6 -  6) =    -14.66430  eV     1   --> A''            
     e(  7 -  7) =     -7.11571  eV     1   --> A'             
     e(  8 -  8) =     -5.78178  eV     1   --> A'             
     e(  9 -  9) =     -5.32610  eV     1   --> A''            
     e( 10 - 10) =     -4.81210  eV     1   --> A''            
     e( 11 - 11) =     -4.11592  eV     1   --> A'             
     e( 12 - 12) =     -3.06595  eV     1   --> A''            
     e( 13 - 13) =     -2.70640  eV     1   --> A'             
     e( 14 - 14) =     -0.10463  eV     1   --> A'             
     e( 15 - 15) =      0.33550  eV     1   --> A'             
     e( 16 - 16) =      0.36512  eV     1   --> A''            
     e( 17 - 17) =      1.65705  eV     1   --> A''            
     e( 18 - 18) =      4.07265  eV     1   --> A'             
     e( 19 - 19) =      4.17534  eV     1   --> A''            
     e( 20 - 20) =      5.08391  eV     1   --> A'             
     e( 21 - 21) =      5.56786  eV     1   --> A''            
     e( 22 - 22) =      6.12656  eV     1   --> A'             
     e( 23 - 23) =      6.73909  eV     1   --> A'             
     e( 24 - 24) =      7.06612  eV     1   --> A''            
     e( 25 - 25) =      7.45733  eV     1   --> A'             
     e( 26 - 26) =      7.96180  eV     1   --> A''            
     e( 27 - 27) =      8.00433  eV     1   --> A'             
     e( 28 - 28) =      8.93227  eV     1   --> A''            
     e( 29 - 29) =      9.47624  eV     1   --> A'             
     e( 30 - 30) =      9.61019  eV     1   --> A''            
     e( 31 - 31) =     10.09705  eV     1   --> A'             
     e( 32 - 32) =     10.43552  eV     1   --> A''            
     e( 33 - 33) =     10.93676  eV     1   --> A'             
     e( 34 - 34) =     11.57639  eV     1   --> A'             
     e( 35 - 35) =     12.04224  eV     1   --> A''            
     e( 36 - 36) =     12.70904  eV     1   --> A'             
     e( 37 - 37) =     12.77091  eV     1   --> A''            
     e( 38 - 38) =     14.34677  eV     1   --> A''            
     e( 39 - 39) =     14.50442  eV     1   --> A'             
     e( 40 - 40) =     15.44989  eV     1   --> A''            
     e( 41 - 41) =     16.38746  eV     1   --> A'             
     e( 42 - 42) =     16.42875  eV     1   --> A''            
     e( 43 - 43) =     16.54342  eV     1   --> A'             
     e( 44 - 44) =     16.63368  eV     1   --> A'             
     e( 45 - 45) =     16.66938  eV     1   --> A''            
     e( 46 - 46) =     17.43468  eV     1   --> A'             
     e( 47 - 47) =     17.46254  eV     1   --> A'             
     e( 48 - 48) =     17.84376  eV     1   --> A''            
     e( 49 - 49) =     17.96409  eV     1   --> A''            
     e( 50 - 50) =     18.36369  eV     1   --> A''            
     e( 51 - 51) =     18.44425  eV     1   --> A'             
     e( 52 - 52) =     18.61367  eV     1   --> A'             
     e( 53 - 53) =     19.11799  eV     1   --> A'             
     e( 54 - 54) =     19.18499  eV     1   --> A''            
     e( 55 - 55) =     19.40181  eV     1   --> A''            
     e( 56 - 56) =     19.69518  eV     1   --> A'             
     e( 57 - 57) =     19.71792  eV     1   --> A''            
     e( 58 - 58) =     20.30342  eV     1   --> A'             
     e( 59 - 59) =     20.50557  eV     1   --> A'             
     e( 60 - 60) =     20.99665  eV     1   --> A''            

 **************************************************************************

 **************************************************************************

                    xk=(  -0.14286,   0.24744,   0.00000  )

     Band symmetry, C_s (m)     point group:

     e(  1 -  1) =    -62.94026  eV     1   --> A'             
     e(  2 -  2) =    -37.08506  eV     1   --> A''            
     e(  3 -  3) =    -37.07919  eV     1   --> A'             
     e(  4 -  4) =    -36.95068  eV     1   --> A'             
     e(  5 -  5) =    -15.40516  eV     1   --> A'             
     e(  6 -  6) =    -14.59949  eV     1   --> A''            
     e(  7 -  7) =     -7.04885  eV     1   --> A'             
     e(  8 -  8) =     -5.88667  eV     1   --> A'             
     e(  9 -  9) =     -5.49363  eV     1   --> A''            
     e( 10 - 10) =     -5.05483  eV     1   --> A''            
     e( 11 - 11) =     -4.04975  eV     1   --> A'             
     e( 12 - 12) =     -3.09299  eV     1   --> A''            
     e( 13 - 13) =     -2.82740  eV     1   --> A'             
     e( 14 - 14) =     -0.18554  eV     1   --> A'             
     e( 15 - 15) =      0.31157  eV     1   --> A'             
     e( 16 - 16) =      0.41630  eV     1   --> A''            
     e( 17 - 17) =      1.82390  eV     1   --> A''            
     e( 18 - 18) =      4.29063  eV     1   --> A'             
     e( 19 - 19) =      4.40251  eV     1   --> A''            
     e( 20 - 20) =      5.33667  eV     1   --> A'             
     e( 21 - 21) =      5.81129  eV     1   --> A''            
     e( 22 - 22) =      6.36819  eV     1   --> A'             
     e( 23 - 23) =      6.95271  eV     1   --> A'             
     e( 24 - 24) =      7.24700  eV     1   --> A''            
     e( 25 - 25) =      7.50730  eV     1   --> A'             
     e( 26 - 26) =      7.80397  eV     1   --> A''            
     e( 27 - 27) =      8.16178  eV     1   --> A'             
     e( 28 - 28) =      9.04816  eV     1   --> A''            
     e( 29 - 29) =      9.42427  eV     1   --> A'             
     e( 30 - 30) =      9.84801  eV     1   --> A''            
     e( 31 - 31) =     10.15851  eV     1   --> A'             
     e( 32 - 32) =     10.40852  eV     1   --> A''            
     e( 33 - 33) =     10.67814  eV     1   --> A'             
     e( 34 - 34) =     11.71703  eV     1   --> A'             
     e( 35 - 35) =     12.28902  eV     1   --> A''            
     e( 36 - 36) =     12.81362  eV     1   --> A'             
     e( 37 - 37) =     12.83618  eV     1   --> A''            
     e( 38 - 38) =     14.42616  eV     1   --> A''            
     e( 39 - 39) =     14.69188  eV     1   --> A'             
     e( 40 - 40) =     15.62848  eV     1   --> A''            
     e( 41 - 41) =     15.79762  eV     1   --> A'             
     e( 42 - 42) =     15.93896  eV     1   --> A'             
     e( 43 - 43) =     15.97236  eV     1   --> A''            
     e( 44 - 44) =     16.17608  eV     1   --> A''            
     e( 45 - 45) =     16.75100  eV     1   --> A'             
     e( 46 - 46) =     16.77426  eV     1   --> A'             
     e( 47 - 47) =     16.98751  eV     1   --> A'             
     e( 48 - 48) =     17.20559  eV     1   --> A''            
     e( 49 - 49) =     17.29733  eV     1   --> A''            
     e( 50 - 50) =     17.81786  eV     1   --> A'             
     e( 51 - 51) =     17.95212  eV     1   --> A'             
     e( 52 - 52) =     18.58037  eV     1   --> A''            
     e( 53 - 53) =     18.82458  eV     1   --> A''            
     e( 54 - 54) =     18.87032  eV     1   --> A''            
     e( 55 - 55) =     19.26376  eV     1   --> A'             
     e( 56 - 56) =     19.43408  eV     1   --> A'             
     e( 57 - 57) =     19.76563  eV     1   --> A'             
     e( 58 - 58) =     19.98289  eV     1   --> A''            
     e( 59 - 59) =     20.22254  eV     1   --> A'             
     e( 60 - 60) =     20.42778  eV     1   --> A''            

 **************************************************************************

 **************************************************************************

                    xk=(  -0.15873,   0.27493,   0.00000  )

     Band symmetry, C_s (m)     point group:

     e(  1 -  1) =    -62.93678  eV     1   --> A'             
     e(  2 -  2) =    -37.10814  eV     1   --> A'             
     e(  3 -  3) =    -37.07817  eV     1   --> A''            
     e(  4 -  4) =    -36.96363  eV     1   --> A'             
     e(  5 -  5) =    -15.24152  eV     1   --> A'             
     e(  6 -  6) =    -14.53144  eV     1   --> A''            
     e(  7 -  7) =     -7.03176  eV     1   --> A'             
     e(  8 -  8) =     -5.92899  eV     1   --> A'             
     e(  9 -  9) =     -5.68864  eV     1   --> A''            
     e( 10 - 10) =     -5.25069  eV     1   --> A''            
     e( 11 - 11) =     -4.04270  eV     1   --> A'             
     e( 12 - 12) =     -3.14281  eV     1   --> A''            
     e( 13 - 13) =     -2.91469  eV     1   --> A'             
     e( 14 - 14) =     -0.23768  eV     1   --> A'             
     e( 15 - 15) =      0.32130  eV     1   --> A'             
     e( 16 - 16) =      0.48917  eV     1   --> A''            
     e( 17 - 17) =      1.97292  eV     1   --> A''            
     e( 18 - 18) =      4.52476  eV     1   --> A'             
     e( 19 - 19) =      4.64857  eV     1   --> A''            
     e( 20 - 20) =      5.61829  eV     1   --> A'             
     e( 21 - 21) =      6.07988  eV     1   --> A''            
     e( 22 - 22) =      6.61876  eV     1   --> A'             
     e( 23 - 23) =      6.88276  eV     1   --> A'             
     e( 24 - 24) =      7.36172  eV     1   --> A''            
     e( 25 - 25) =      7.77099  eV     1   --> A''            
     e( 26 - 26) =      7.77421  eV     1   --> A'             
     e( 27 - 27) =      8.34016  eV     1   --> A'             
     e( 28 - 28) =      9.13965  eV     1   --> A''            
     e( 29 - 29) =      9.42668  eV     1   --> A'             
     e( 30 - 30) =      9.94354  eV     1   --> A'             
     e( 31 - 31) =     10.06593  eV     1   --> A''            
     e( 32 - 32) =     10.45714  eV     1   --> A''            
     e( 33 - 33) =     10.52275  eV     1   --> A'             
     e( 34 - 34) =     12.03757  eV     1   --> A'             
     e( 35 - 35) =     12.50463  eV     1   --> A''            
     e( 36 - 36) =     12.84297  eV     1   --> A''            
     e( 37 - 37) =     12.97408  eV     1   --> A'             
     e( 38 - 38) =     14.53444  eV     1   --> A''            
     e( 39 - 39) =     14.85920  eV     1   --> A'             
     e( 40 - 40) =     15.28159  eV     1   --> A'             
     e( 41 - 41) =     15.35349  eV     1   --> A'             
     e( 42 - 42) =     15.36272  eV     1   --> A''            
     e( 43 - 43) =     15.62618  eV     1   --> A''            
     e( 44 - 44) =     16.09603  eV     1   --> A'             
     e( 45 - 45) =     16.12184  eV     1   --> A'             
     e( 46 - 46) =     16.15857  eV     1   --> A''            
     e( 47 - 47) =     16.62005  eV     1   --> A''            
     e( 48 - 48) =     16.69326  eV     1   --> A''            
     e( 49 - 49) =     17.18384  eV     1   --> A'             
     e( 50 - 50) =     17.29641  eV     1   --> A'             
     e( 51 - 51) =     17.41322  eV     1   --> A'             
     e( 52 - 52) =     18.02882  eV     1   --> A''            
     e( 53 - 53) =     18.25770  eV     1   --> A''            
     e( 54 - 54) =     18.87573  eV     1   --> A'             
     e( 55 - 55) =     19.07497  eV     1   --> A'             
     e( 56 - 56) =     19.18436  eV     1   --> A''            
     e( 57 - 57) =     19.46024  eV     1   --> A'             
     e( 58 - 58) =     19.86531  eV     1   --> A''            
     e( 59 - 59) =     20.26161  eV     1   --> A''            
     e( 60 - 60) =     20.36535  eV     1   --> A'             

 **************************************************************************

 **************************************************************************

                    xk=(  -0.17460,   0.30242,   0.00000  )

     Band symmetry, C_s (m)     point group:

     e(  1 -  1) =    -62.93335  eV     1   --> A'             
     e(  2 -  2) =    -37.13505  eV     1   --> A'             
     e(  3 -  3) =    -37.07141  eV     1   --> A''            
     e(  4 -  4) =    -36.97781  eV     1   --> A'             
     e(  5 -  5) =    -15.07393  eV     1   --> A'             
     e(  6 -  6) =    -14.46157  eV     1   --> A''            
     e(  7 -  7) =     -7.06322  eV     1   --> A'             
     e(  8 -  8) =     -5.92399  eV     1   --> A''            
     e(  9 -  9) =     -5.91151  eV     1   --> A'             
     e( 10 - 10) =     -5.37724  eV     1   --> A''            
     e( 11 - 11) =     -4.11154  eV     1   --> A'             
     e( 12 - 12) =     -3.21419  eV     1   --> A''            
     e( 13 - 13) =     -2.95064  eV     1   --> A'             
     e( 14 - 14) =     -0.24868  eV     1   --> A'             
     e( 15 - 15) =      0.35372  eV     1   --> A'             
     e( 16 - 16) =      0.57721  eV     1   --> A''            
     e( 17 - 17) =      2.09913  eV     1   --> A''            
     e( 18 - 18) =      4.77115  eV     1   --> A'             
     e( 19 - 19) =      4.91091  eV     1   --> A''            
     e( 20 - 20) =      5.92841  eV     1   --> A'             
     e( 21 - 21) =      6.37128  eV     1   --> A''            
     e( 22 - 22) =      6.64953  eV     1   --> A'             
     e( 23 - 23) =      6.92917  eV     1   --> A'             
     e( 24 - 24) =      7.36988  eV     1   --> A''            
     e( 25 - 25) =      7.91461  eV     1   --> A''            
     e( 26 - 26) =      8.05274  eV     1   --> A'             
     e( 27 - 27) =      8.52484  eV     1   --> A'             
     e( 28 - 28) =      9.23320  eV     1   --> A''            
     e( 29 - 29) =      9.42772  eV     1   --> A'             
     e( 30 - 30) =      9.62069  eV     1   --> A'             
     e( 31 - 31) =     10.21214  eV     1   --> A''            
     e( 32 - 32) =     10.58657  eV     1   --> A'             
     e( 33 - 33) =     10.62065  eV     1   --> A''            
     e( 34 - 34) =     12.34591  eV     1   --> A'             
     e( 35 - 35) =     12.45765  eV     1   --> A''            
     e( 36 - 36) =     12.97022  eV     1   --> A''            
     e( 37 - 37) =     13.17028  eV     1   --> A'             
     e( 38 - 38) =     14.57263  eV     1   --> A''            
     e( 39 - 39) =     14.59727  eV     1   --> A'             
     e( 40 - 40) =     14.83717  eV     1   --> A'             
     e( 41 - 41) =     14.85271  eV     1   --> A''            
     e( 42 - 42) =     15.25787  eV     1   --> A'             
     e( 43 - 43) =     15.47866  eV     1   --> A''            
     e( 44 - 44) =     15.48464  eV     1   --> A'             
     e( 45 - 45) =     15.50393  eV     1   --> A'             
     e( 46 - 46) =     15.99851  eV     1   --> A''            
     e( 47 - 47) =     16.07290  eV     1   --> A''            
     e( 48 - 48) =     16.58026  eV     1   --> A''            
     e( 49 - 49) =     16.58261  eV     1   --> A'             
     e( 50 - 50) =     16.72422  eV     1   --> A'             
     e( 51 - 51) =     17.54138  eV     1   --> A''            
     e( 52 - 52) =     17.68448  eV     1   --> A''            
     e( 53 - 53) =     17.77724  eV     1   --> A'             
     e( 54 - 54) =     18.29424  eV     1   --> A'             
     e( 55 - 55) =     18.59459  eV     1   --> A'             
     e( 56 - 56) =     19.31740  eV     1   --> A''            
     e( 57 - 57) =     19.34860  eV     1   --> A'             
     e( 58 - 58) =     19.50497  eV     1   --> A''            
     e( 59 - 59) =     19.90021  eV     1   --> A''            
     e( 60 - 60) =     20.42485  eV     1   --> A'             

 **************************************************************************

 **************************************************************************

                    xk=(  -0.19047,   0.32992,   0.00000  )

     Band symmetry, C_s (m)     point group:

     e(  1 -  1) =    -62.93006  eV     1   --> A'             
     e(  2 -  2) =    -37.15906  eV     1   --> A'             
     e(  3 -  3) =    -37.06492  eV     1   --> A''            
     e(  4 -  4) =    -36.99319  eV     1   --> A'             
     e(  5 -  5) =    -14.90646  eV     1   --> A'             
     e(  6 -  6) =    -14.39143  eV     1   --> A''            
     e(  7 -  7) =     -7.12228  eV     1   --> A'             
     e(  8 -  8) =     -6.18133  eV     1   --> A''            
     e(  9 -  9) =     -5.85757  eV     1   --> A'             
     e( 10 - 10) =     -5.44483  eV     1   --> A''            
     e( 11 - 11) =     -4.24832  eV     1   --> A'             
     e( 12 - 12) =     -3.30541  eV     1   --> A''            
     e( 13 - 13) =     -2.93994  eV     1   --> A'             
     e( 14 - 14) =     -0.21067  eV     1   --> A'             
     e( 15 - 15) =      0.39634  eV     1   --> A'             
     e( 16 - 16) =      0.67256  eV     1   --> A''            
     e( 17 - 17) =      2.20103  eV     1   --> A''            
     e( 18 - 18) =      5.02160  eV     1   --> A'             
     e( 19 - 19) =      5.18679  eV     1   --> A''            
     e( 20 - 20) =      6.26425  eV     1   --> A'             
     e( 21 - 21) =      6.43056  eV     1   --> A'             
     e( 22 - 22) =      6.68017  eV     1   --> A''            
     e( 23 - 23) =      7.20102  eV     1   --> A'             
     e( 24 - 24) =      7.37573  eV     1   --> A''            
     e( 25 - 25) =      8.13795  eV     1   --> A''            
     e( 26 - 26) =      8.17748  eV     1   --> A'             
     e( 27 - 27) =      8.70807  eV     1   --> A'             
     e( 28 - 28) =      9.21692  eV     1   --> A'             
     e( 29 - 29) =      9.35630  eV     1   --> A''            
     e( 30 - 30) =      9.71809  eV     1   --> A'             
     e( 31 - 31) =     10.28689  eV     1   --> A''            
     e( 32 - 32) =     10.69622  eV     1   --> A'             
     e( 33 - 33) =     10.88349  eV     1   --> A''            
     e( 34 - 34) =     12.16885  eV     1   --> A''            
     e( 35 - 35) =     12.61550  eV     1   --> A'             
     e( 36 - 36) =     13.20746  eV     1   --> A''            
     e( 37 - 37) =     13.26050  eV     1   --> A'             
     e( 38 - 38) =     14.12618  eV     1   --> A'             
     e( 39 - 39) =     14.29761  eV     1   --> A''            
     e( 40 - 40) =     14.47747  eV     1   --> A''            
     e( 41 - 41) =     14.49621  eV     1   --> A'             
     e( 42 - 42) =     14.86884  eV     1   --> A'             
     e( 43 - 43) =     14.94489  eV     1   --> A'             
     e( 44 - 44) =     15.29880  eV     1   --> A''            
     e( 45 - 45) =     15.47585  eV     1   --> A''            
     e( 46 - 46) =     15.53868  eV     1   --> A'             
     e( 47 - 47) =     15.87362  eV     1   --> A''            
     e( 48 - 48) =     16.02769  eV     1   --> A'             
     e( 49 - 49) =     16.17509  eV     1   --> A'             
     e( 50 - 50) =     16.75533  eV     1   --> A''            
     e( 51 - 51) =     17.10203  eV     1   --> A''            
     e( 52 - 52) =     17.31392  eV     1   --> A''            
     e( 53 - 53) =     17.67492  eV     1   --> A'             
     e( 54 - 54) =     18.02383  eV     1   --> A'             
     e( 55 - 55) =     18.28707  eV     1   --> A'             
     e( 56 - 56) =     18.93102  eV     1   --> A''            
     e( 57 - 57) =     19.18793  eV     1   --> A'             
     e( 58 - 58) =     19.31290  eV     1   --> A''            
     e( 59 - 59) =     19.74111  eV     1   --> A''            
     e( 60 - 60) =     19.99949  eV     1   --> A'             

 **************************************************************************

 **************************************************************************

                    xk=(  -0.20635,   0.35741,   0.00000  )

     Band symmetry, C_s (m)     point group:

     e(  1 -  1) =    -62.92699  eV     1   --> A'             
     e(  2 -  2) =    -37.17931  eV     1   --> A'             
     e(  3 -  3) =    -37.05881  eV     1   --> A''            
     e(  4 -  4) =    -37.00964  eV     1   --> A'             
     e(  5 -  5) =    -14.74351  eV     1   --> A'             
     e(  6 -  6) =    -14.32269  eV     1   --> A''            
     e(  7 -  7) =     -7.18421  eV     1   --> A'             
     e(  8 -  8) =     -6.43858  eV     1   --> A''            
     e(  9 -  9) =     -5.79426  eV     1   --> A'             
     e( 10 - 10) =     -5.46924  eV     1   --> A''            
     e( 11 - 11) =     -4.43047  eV     1   --> A'             
     e( 12 - 12) =     -3.41405  eV     1   --> A''            
     e( 13 - 13) =     -2.89751  eV     1   --> A'             
     e( 14 - 14) =     -0.12869  eV     1   --> A'             
     e( 15 - 15) =      0.44137  eV     1   --> A'             
     e( 16 - 16) =      0.76611  eV     1   --> A''            
     e( 17 - 17) =      2.28164  eV     1   --> A''            
     e( 18 - 18) =      5.25506  eV     1   --> A'             
     e( 19 - 19) =      5.47314  eV     1   --> A''            
     e( 20 - 20) =      6.20774  eV     1   --> A'             
     e( 21 - 21) =      6.63308  eV     1   --> A'             
     e( 22 - 22) =      6.99116  eV     1   --> A''            
     e( 23 - 23) =      7.43600  eV     1   --> A'             
     e( 24 - 24) =      7.44907  eV     1   --> A''            
     e( 25 - 25) =      8.08991  eV     1   --> A'             
     e( 26 - 26) =      8.38672  eV     1   --> A''            
     e( 27 - 27) =      8.88229  eV     1   --> A'             
     e( 28 - 28) =      9.24263  eV     1   --> A'             
     e( 29 - 29) =      9.52210  eV     1   --> A''            
     e( 30 - 30) =      9.90973  eV     1   --> A'             
     e( 31 - 31) =     10.33156  eV     1   --> A''            
     e( 32 - 32) =     10.85092  eV     1   --> A'             
     e( 33 - 33) =     11.19187  eV     1   --> A''            
     e( 34 - 34) =     11.80199  eV     1   --> A''            
     e( 35 - 35) =     12.80100  eV     1   --> A'             
     e( 36 - 36) =     13.12506  eV     1   --> A'             
     e( 37 - 37) =     13.34061  eV     1   --> A''            
     e( 38 - 38) =     13.66771  eV     1   --> A'             
     e( 39 - 39) =     13.97895  eV     1   --> A''            
     e( 40 - 40) =     14.11598  eV     1   --> A''            
     e( 41 - 41) =     14.20504  eV     1   --> A'             
     e( 42 - 42) =     14.31632  eV     1   --> A'             
     e( 43 - 43) =     14.66682  eV     1   --> A'             
     e( 44 - 44) =     14.87166  eV     1   --> A''            
     e( 45 - 45) =     15.01020  eV     1   --> A''            
     e( 46 - 46) =     15.42678  eV     1   --> A'             
     e( 47 - 47) =     15.70605  eV     1   --> A'             
     e( 48 - 48) =     15.93132  eV     1   --> A'             
     e( 49 - 49) =     15.96886  eV     1   --> A''            
     e( 50 - 50) =     16.54192  eV     1   --> A''            
     e( 51 - 51) =     16.66984  eV     1   --> A''            
     e( 52 - 52) =     17.16027  eV     1   --> A'             
     e( 53 - 53) =     17.53818  eV     1   --> A''            
     e( 54 - 54) =     17.57078  eV     1   --> A'             
     e( 55 - 55) =     18.56418  eV     1   --> A'             
     e( 56 - 56) =     18.59518  eV     1   --> A''            
     e( 57 - 57) =     18.85690  eV     1   --> A''            
     e( 58 - 58) =     18.96057  eV     1   --> A'             
     e( 59 - 59) =     19.69800  eV     1   --> A'             
     e( 60 - 60) =     19.75505  eV     1   --> A''            

 **************************************************************************

 **************************************************************************

                    xk=(  -0.22222,   0.38490,   0.00000  )

     Band symmetry, C_s (m)     point group:

     e(  1 -  1) =    -62.92420  eV     1   --> A'             
     e(  2 -  2) =    -37.19522  eV     1   --> A'             
     e(  3 -  3) =    -37.05333  eV     1   --> A''            
     e(  4 -  4) =    -37.02702  eV     1   --> A'             
     e(  5 -  5) =    -14.58969  eV     1   --> A'             
     e(  6 -  6) =    -14.25709  eV     1   --> A''            
     e(  7 -  7) =     -7.23039  eV     1   --> A'             
     e(  8 -  8) =     -6.68212  eV     1   --> A''            
     e(  9 -  9) =     -5.74129  eV     1   --> A'             
     e( 10 - 10) =     -5.45953  eV     1   --> A''            
     e( 11 - 11) =     -4.63837  eV     1   --> A'             
     e( 12 - 12) =     -3.53706  eV     1   --> A''            
     e( 13 - 13) =     -2.83162  eV     1   --> A'             
     e( 14 - 14) =     -0.02962  eV     1   --> A'             
     e( 15 - 15) =      0.49525  eV     1   --> A'             
     e( 16 - 16) =      0.84782  eV     1   --> A''            
     e( 17 - 17) =      2.34836  eV     1   --> A''            
     e( 18 - 18) =      5.40852  eV     1   --> A'             
     e( 19 - 19) =      5.76627  eV     1   --> A''            
     e( 20 - 20) =      6.06885  eV     1   --> A'             
     e( 21 - 21) =      7.00712  eV     1   --> A'             
     e( 22 - 22) =      7.26534  eV     1   --> A''            
     e( 23 - 23) =      7.44905  eV     1   --> A'             
     e( 24 - 24) =      7.64092  eV     1   --> A''            
     e( 25 - 25) =      8.13502  eV     1   --> A'             
     e( 26 - 26) =      8.64745  eV     1   --> A''            
     e( 27 - 27) =      9.04839  eV     1   --> A'             
     e( 28 - 28) =      9.43635  eV     1   --> A'             
     e( 29 - 29) =      9.71981  eV     1   --> A''            
     e( 30 - 30) =     10.09982  eV     1   --> A'             
     e( 31 - 31) =     10.37219  eV     1   --> A''            
     e( 32 - 32) =     11.07816  eV     1   --> A'             
     e( 33 - 33) =     11.41489  eV     1   --> A''            
     e( 34 - 34) =     11.51693  eV     1   --> A''            
     e( 35 - 35) =     12.59931  eV     1   --> A'             
     e( 36 - 36) =     13.01271  eV     1   --> A'             
     e( 37 - 37) =     13.14412  eV     1   --> A''            
     e( 38 - 38) =     13.43066  eV     1   --> A'             
     e( 39 - 39) =     13.68785  eV     1   --> A''            
     e( 40 - 40) =     13.71717  eV     1   --> A'             
     e( 41 - 41) =     13.80204  eV     1   --> A'             
     e( 42 - 42) =     13.95085  eV     1   --> A''            
     e( 43 - 43) =     14.45218  eV     1   --> A''            
     e( 44 - 44) =     14.57157  eV     1   --> A'             
     e( 45 - 45) =     14.59433  eV     1   --> A''            
     e( 46 - 46) =     14.96154  eV     1   --> A'             
     e( 47 - 47) =     15.45959  eV     1   --> A'             
     e( 48 - 48) =     15.84067  eV     1   --> A''            
     e( 49 - 49) =     16.16195  eV     1   --> A''            
     e( 50 - 50) =     16.24071  eV     1   --> A'             
     e( 51 - 51) =     16.55011  eV     1   --> A''            
     e( 52 - 52) =     16.71877  eV     1   --> A'             
     e( 53 - 53) =     17.13941  eV     1   --> A'             
     e( 54 - 54) =     17.81896  eV     1   --> A''            
     e( 55 - 55) =     18.40513  eV     1   --> A''            
     e( 56 - 56) =     18.42070  eV     1   --> A'             
     e( 57 - 57) =     18.47822  eV     1   --> A''            
     e( 58 - 58) =     19.00284  eV     1   --> A'             
     e( 59 - 59) =     19.51455  eV     1   --> A'             
     e( 60 - 60) =     19.66673  eV     1   --> A''            

 **************************************************************************

 **************************************************************************

                    xk=(  -0.23809,   0.41239,   0.00000  )

     Band symmetry, C_s (m)     point group:

     e(  1 -  1) =    -62.92174  eV     1   --> A'             
     e(  2 -  2) =    -37.20637  eV     1   --> A'             
     e(  3 -  3) =    -37.04845  eV     1   --> A''            
     e(  4 -  4) =    -37.04519  eV     1   --> A'             
     e(  5 -  5) =    -14.44957  eV     1   --> A'             
     e(  6 -  6) =    -14.19640  eV     1   --> A''            
     e(  7 -  7) =     -7.24851  eV     1   --> A'             
     e(  8 -  8) =     -6.90352  eV     1   --> A''            
     e(  9 -  9) =     -5.70987  eV     1   --> A'             
     e( 10 - 10) =     -5.42127  eV     1   --> A''            
     e( 11 - 11) =     -4.85906  eV     1   --> A'             
     e( 12 - 12) =     -3.67060  eV     1   --> A''            
     e( 13 - 13) =     -2.74364  eV     1   --> A'             
     e( 14 - 14) =      0.03279  eV     1   --> A'             
     e( 15 - 15) =      0.58823  eV     1   --> A'             
     e( 16 - 16) =      0.90835  eV     1   --> A''            
     e( 17 - 17) =      2.41093  eV     1   --> A''            
     e( 18 - 18) =      5.38608  eV     1   --> A'             
     e( 19 - 19) =      6.06134  eV     1   --> A''            
     e( 20 - 20) =      6.08318  eV     1   --> A'             
     e( 21 - 21) =      7.16514  eV     1   --> A'             
     e( 22 - 22) =      7.49105  eV     1   --> A''            
     e( 23 - 23) =      7.53078  eV     1   --> A'             
     e( 24 - 24) =      7.96313  eV     1   --> A''            
     e( 25 - 25) =      8.41752  eV     1   --> A'             
     e( 26 - 26) =      8.91223  eV     1   --> A''            
     e( 27 - 27) =      9.20499  eV     1   --> A'             
     e( 28 - 28) =      9.67342  eV     1   --> A'             
     e( 29 - 29) =      9.90382  eV     1   --> A''            
     e( 30 - 30) =     10.26993  eV     1   --> A'             
     e( 31 - 31) =     10.43792  eV     1   --> A''            
     e( 32 - 32) =     11.07036  eV     1   --> A''            
     e( 33 - 33) =     11.38370  eV     1   --> A'             
     e( 34 - 34) =     11.80189  eV     1   --> A''            
     e( 35 - 35) =     12.23562  eV     1   --> A'             
     e( 36 - 36) =     12.64191  eV     1   --> A'             
     e( 37 - 37) =     12.82835  eV     1   --> A''            
     e( 38 - 38) =     13.21000  eV     1   --> A'             
     e( 39 - 39) =     13.25251  eV     1   --> A''            
     e( 40 - 40) =     13.26525  eV     1   --> A'             
     e( 41 - 41) =     13.69800  eV     1   --> A'             
     e( 42 - 42) =     13.75410  eV     1   --> A''            
     e( 43 - 43) =     14.14475  eV     1   --> A''            
     e( 44 - 44) =     14.24686  eV     1   --> A'             
     e( 45 - 45) =     14.40068  eV     1   --> A''            
     e( 46 - 46) =     14.51640  eV     1   --> A'             
     e( 47 - 47) =     15.43444  eV     1   --> A'             
     e( 48 - 48) =     15.50613  eV     1   --> A''            
     e( 49 - 49) =     15.77643  eV     1   --> A''            
     e( 50 - 50) =     16.17099  eV     1   --> A'             
     e( 51 - 51) =     16.60415  eV     1   --> A''            
     e( 52 - 52) =     16.70828  eV     1   --> A'             
     e( 53 - 53) =     16.85110  eV     1   --> A'             
     e( 54 - 54) =     17.69573  eV     1   --> A''            
     e( 55 - 55) =     18.02290  eV     1   --> A''            
     e( 56 - 56) =     18.05901  eV     1   --> A'             
     e( 57 - 57) =     18.76293  eV     1   --> A''            
     e( 58 - 58) =     18.87540  eV     1   --> A'             
     e( 59 - 59) =     19.50170  eV     1   --> A'             
     e( 60 - 60) =     19.60462  eV     1   --> A''            

 **************************************************************************

 **************************************************************************

                    xk=(  -0.25397,   0.43989,   0.00000  )

     Band symmetry, C_s (m)     point group:

     e(  1 -  1) =    -62.91966  eV     1   --> A'             
     e(  2 -  2) =    -37.21246  eV     1   --> A'             
     e(  3 -  3) =    -37.06394  eV     1   --> A'             
     e(  4 -  4) =    -37.04434  eV     1   --> A''            
     e(  5 -  5) =    -14.32729  eV     1   --> A'             
     e(  6 -  6) =    -14.14234  eV     1   --> A''            
     e(  7 -  7) =     -7.23077  eV     1   --> A'             
     e(  8 -  8) =     -7.09702  eV     1   --> A''            
     e(  9 -  9) =     -5.70554  eV     1   --> A'             
     e( 10 - 10) =     -5.35934  eV     1   --> A''            
     e( 11 - 11) =     -5.08228  eV     1   --> A'             
     e( 12 - 12) =     -3.81009  eV     1   --> A''            
     e( 13 - 13) =     -2.63487  eV     1   --> A'             
     e( 14 - 14) =      0.01541  eV     1   --> A'             
     e( 15 - 15) =      0.74262  eV     1   --> A'             
     e( 16 - 16) =      0.94165  eV     1   --> A''            
     e( 17 - 17) =      2.47748  eV     1   --> A''            
     e( 18 - 18) =      5.25243  eV     1   --> A'             
     e( 19 - 19) =      6.11627  eV     1   --> A'             
     e( 20 - 20) =      6.35194  eV     1   --> A''            
     e( 21 - 21) =      7.12530  eV     1   --> A'             
     e( 22 - 22) =      7.72087  eV     1   --> A''            
     e( 23 - 23) =      7.95069  eV     1   --> A'             
     e( 24 - 24) =      8.35591  eV     1   --> A''            
     e( 25 - 25) =      8.76298  eV     1   --> A'             
     e( 26 - 26) =      9.16210  eV     1   --> A''            
     e( 27 - 27) =      9.35290  eV     1   --> A'             
     e( 28 - 28) =      9.90036  eV     1   --> A'             
     e( 29 - 29) =     10.00586  eV     1   --> A''            
     e( 30 - 30) =     10.43680  eV     1   --> A'             
     e( 31 - 31) =     10.49073  eV     1   --> A''            
     e( 32 - 32) =     10.89306  eV     1   --> A''            
     e( 33 - 33) =     11.73723  eV     1   --> A'             
     e( 34 - 34) =     11.90296  eV     1   --> A'             
     e( 35 - 35) =     11.93238  eV     1   --> A''            
     e( 36 - 36) =     12.24936  eV     1   --> A'             
     e( 37 - 37) =     12.61971  eV     1   --> A''            
     e( 38 - 38) =     12.74386  eV     1   --> A'             
     e( 39 - 39) =     12.80829  eV     1   --> A'             
     e( 40 - 40) =     12.83505  eV     1   --> A''            
     e( 41 - 41) =     13.39326  eV     1   --> A''            
     e( 42 - 42) =     13.75840  eV     1   --> A''            
     e( 43 - 43) =     13.76567  eV     1   --> A'             
     e( 44 - 44) =     13.94670  eV     1   --> A'             
     e( 45 - 45) =     14.22123  eV     1   --> A'             
     e( 46 - 46) =     14.43436  eV     1   --> A''            
     e( 47 - 47) =     15.19603  eV     1   --> A''            
     e( 48 - 48) =     15.30817  eV     1   --> A'             
     e( 49 - 49) =     15.42098  eV     1   --> A''            
     e( 50 - 50) =     15.83961  eV     1   --> A'             
     e( 51 - 51) =     16.59022  eV     1   --> A'             
     e( 52 - 52) =     16.63594  eV     1   --> A''            
     e( 53 - 53) =     17.12485  eV     1   --> A'             
     e( 54 - 54) =     17.42103  eV     1   --> A''            
     e( 55 - 55) =     17.63953  eV     1   --> A''            
     e( 56 - 56) =     17.72532  eV     1   --> A'             
     e( 57 - 57) =     18.50405  eV     1   --> A'             
     e( 58 - 58) =     19.15353  eV     1   --> A''            
     e( 59 - 59) =     19.22620  eV     1   --> A'             
     e( 60 - 60) =     19.58833  eV     1   --> A''            

 **************************************************************************

 **************************************************************************

                    xk=(  -0.26984,   0.46738,   0.00000  )

     Band symmetry, C_s (m)     point group:

     e(  1 -  1) =    -62.91798  eV     1   --> A'             
     e(  2 -  2) =    -37.21358  eV     1   --> A'             
     e(  3 -  3) =    -37.08301  eV     1   --> A'             
     e(  4 -  4) =    -37.04103  eV     1   --> A''            
     e(  5 -  5) =    -14.22621  eV     1   --> A'             
     e(  6 -  6) =    -14.09649  eV     1   --> A''            
     e(  7 -  7) =     -7.25845  eV     1   --> A''            
     e(  8 -  8) =     -7.17296  eV     1   --> A'             
     e(  9 -  9) =     -5.73406  eV     1   --> A'             
     e( 10 - 10) =     -5.29412  eV     1   --> A'             
     e( 11 - 11) =     -5.27953  eV     1   --> A''            
     e( 12 - 12) =     -3.94993  eV     1   --> A''            
     e( 13 - 13) =     -2.51120  eV     1   --> A'             
     e( 14 - 14) =     -0.07020  eV     1   --> A'             
     e( 15 - 15) =      0.93281  eV     1   --> A'             
     e( 16 - 16) =      0.94770  eV     1   --> A''            
     e( 17 - 17) =      2.55052  eV     1   --> A''            
     e( 18 - 18) =      5.11371  eV     1   --> A'             
     e( 19 - 19) =      6.02071  eV     1   --> A'             
     e( 20 - 20) =      6.62936  eV     1   --> A''            
     e( 21 - 21) =      7.27181  eV     1   --> A'             
     e( 22 - 22) =      7.97845  eV     1   --> A''            
     e( 23 - 23) =      8.42266  eV     1   --> A'             
     e( 24 - 24) =      8.77384  eV     1   --> A''            
     e( 25 - 25) =      9.10649  eV     1   --> A'             
     e( 26 - 26) =      9.35989  eV     1   --> A''            
     e( 27 - 27) =      9.49880  eV     1   --> A'             
     e( 28 - 28) =      9.98016  eV     1   --> A''            
     e( 29 - 29) =     10.06215  eV     1   --> A'             
     e( 30 - 30) =     10.46030  eV     1   --> A''            
     e( 31 - 31) =     10.64478  eV     1   --> A'             
     e( 32 - 32) =     11.03177  eV     1   --> A''            
     e( 33 - 33) =     11.62586  eV     1   --> A'             
     e( 34 - 34) =     11.80439  eV     1   --> A''            
     e( 35 - 35) =     11.82631  eV     1   --> A'             
     e( 36 - 36) =     12.19125  eV     1   --> A'             
     e( 37 - 37) =     12.30949  eV     1   --> A'             
     e( 38 - 38) =     12.38316  eV     1   --> A''            
     e( 39 - 39) =     12.38905  eV     1   --> A'             
     e( 40 - 40) =     12.60224  eV     1   --> A''            
     e( 41 - 41) =     13.12705  eV     1   --> A''            
     e( 42 - 42) =     13.40565  eV     1   --> A'             
     e( 43 - 43) =     13.41132  eV     1   --> A''            
     e( 44 - 44) =     13.60225  eV     1   --> A'             
     e( 45 - 45) =     14.34293  eV     1   --> A''            
     e( 46 - 46) =     14.44116  eV     1   --> A'             
     e( 47 - 47) =     14.92619  eV     1   --> A''            
     e( 48 - 48) =     15.06387  eV     1   --> A'             
     e( 49 - 49) =     15.16058  eV     1   --> A''            
     e( 50 - 50) =     15.50989  eV     1   --> A'             
     e( 51 - 51) =     16.50262  eV     1   --> A'             
     e( 52 - 52) =     16.66305  eV     1   --> A''            
     e( 53 - 53) =     17.17940  eV     1   --> A''            
     e( 54 - 54) =     17.26216  eV     1   --> A''            
     e( 55 - 55) =     17.30693  eV     1   --> A'             
     e( 56 - 56) =     17.49589  eV     1   --> A'             
     e( 57 - 57) =     18.13537  eV     1   --> A'             
     e( 58 - 58) =     18.88038  eV     1   --> A'             
     e( 59 - 59) =     19.38521  eV     1   --> A''            
     e( 60 - 60) =     19.56715  eV     1   --> A''            

 **************************************************************************

 **************************************************************************

                    xk=(  -0.28571,   0.49487,   0.00000  )

     Band symmetry, C_s (m)     point group:

     e(  1 -  1) =    -62.91670  eV     1   --> A'             
     e(  2 -  2) =    -37.20994  eV     1   --> A'             
     e(  3 -  3) =    -37.10199  eV     1   --> A'             
     e(  4 -  4) =    -37.03848  eV     1   --> A''            
     e(  5 -  5) =    -14.14849  eV     1   --> A'             
     e(  6 -  6) =    -14.06014  eV     1   --> A''            
     e(  7 -  7) =     -7.38491  eV     1   --> A''            
     e(  8 -  8) =     -7.07487  eV     1   --> A'             
     e(  9 -  9) =     -5.81162  eV     1   --> A'             
     e( 10 - 10) =     -5.46719  eV     1   --> A'             
     e( 11 - 11) =     -5.18977  eV     1   --> A''            
     e( 12 - 12) =     -4.08276  eV     1   --> A''            
     e( 13 - 13) =     -2.38457  eV     1   --> A'             
     e( 14 - 14) =     -0.19039  eV     1   --> A'             
[...]
     e( 13 - 13) =     -2.31001  eV     1   --> A_1  D_1  S_1  
     e( 14 - 14) =      0.41557  eV     1   --> A_1  D_1  S_1  
     e( 15 - 15) =      0.46153  eV     1   --> B_2  D_4  S_4  
     e( 16 - 16) =      0.68724  eV     1   --> B_1  D_3  S_3  
     e( 17 - 17) =      0.96118  eV     1   --> A_2  D_2  S_2  
     e( 18 - 18) =      3.39328  eV     1   --> A_1  D_1  S_1  
     e( 19 - 19) =      3.50374  eV     1   --> B_2  D_4  S_4  
     e( 20 - 20) =      4.36544  eV     1   --> A_1  D_1  S_1  
     e( 21 - 21) =      4.87240  eV     1   --> B_2  D_4  S_4  
     e( 22 - 22) =      5.02093  eV     1   --> A_1  D_1  S_1  
     e( 23 - 23) =      5.56820  eV     1   --> A_1  D_1  S_1  
     e( 24 - 24) =      6.44037  eV     1   --> B_2  D_4  S_4  
     e( 25 - 25) =      7.29250  eV     1   --> A_1  D_1  S_1  
     e( 26 - 26) =      7.72560  eV     1   --> B_2  D_4  S_4  
     e( 27 - 27) =      8.15712  eV     1   --> A_1  D_1  S_1  
     e( 28 - 28) =      8.62383  eV     1   --> B_2  D_4  S_4  
     e( 29 - 29) =      9.25325  eV     1   --> B_1  D_3  S_3  
     e( 30 - 30) =      9.59505  eV     1   --> A_1  D_1  S_1  
     e( 31 - 31) =      9.59992  eV     1   --> B_2  D_4  S_4  
     e( 32 - 32) =     10.61982  eV     1   --> A_1  D_1  S_1  
     e( 33 - 33) =     10.74112  eV     1   --> A_2  D_2  S_2  
     e( 34 - 34) =     11.35128  eV     1   --> B_2  D_4  S_4  
     e( 35 - 35) =     12.34257  eV     1   --> A_1  D_1  S_1  
     e( 36 - 36) =     12.84735  eV     1   --> B_2  D_4  S_4  
     e( 37 - 37) =     13.50454  eV     1   --> B_1  D_3  S_3  
     e( 38 - 38) =     13.98436  eV     1   --> A_1  D_1  S_1  
     e( 39 - 39) =     14.16733  eV     1   --> A_2  D_2  S_2  
     e( 40 - 40) =     14.67243  eV     1   --> B_2  D_4  S_4  
     e( 41 - 41) =     15.41775  eV     1   --> A_1  D_1  S_1  
     e( 42 - 42) =     15.83446  eV     1   --> B_2  D_4  S_4  
     e( 43 - 43) =     17.49551  eV     1   --> A_1  D_1  S_1  
     e( 44 - 44) =     18.47327  eV     1   --> B_2  D_4  S_4  
     e( 45 - 45) =     18.53289  eV     1   --> A_1  D_1  S_1  
     e( 46 - 46) =     18.66620  eV     1   --> B_2  D_4  S_4  
     e( 47 - 47) =     19.00479  eV     1   --> B_2  D_4  S_4  
     e( 48 - 48) =     19.29334  eV     1   --> A_1  D_1  S_1  
     e( 49 - 49) =     19.90954  eV     1   --> A_1  D_1  S_1  
     e( 50 - 50) =     20.23753  eV     1   --> B_2  D_4  S_4  
     e( 51 - 51) =     20.39284  eV     1   --> A_1  D_1  S_1  
     e( 52 - 52) =     20.64332  eV     1   --> B_1  D_3  S_3  
     e( 53 - 53) =     20.73182  eV     1   --> A_2  D_2  S_2  
     e( 54 - 54) =     20.96845  eV     1   --> B_2  D_4  S_4  
     e( 55 - 55) =     21.02354  eV     1   --> A_1  D_1  S_1  
     e( 56 - 56) =     21.77931  eV     1   --> B_1  D_3  S_3  
     e( 57 - 57) =     21.80994  eV     1   --> B_2  D_4  S_4  
     e( 58 - 58) =     21.82456  eV     1   --> A_1  D_1  S_1  
     e( 59 - 59) =     22.10576  eV     1   --> B_1  D_3  S_3  
     e( 60 - 60) =     22.21688  eV     1   --> A_1  D_1  S_1  

 **************************************************************************

 **************************************************************************

                    xk=(   0.00000,   0.09623,   0.00000  )

     Band symmetry, C_2v (mm2)  point group:

     e(  1 -  1) =    -62.95716  eV     1   --> A_1  D_1  S_1  
     e(  2 -  2) =    -37.11838  eV     1   --> B_2  D_4  S_4  
     e(  3 -  3) =    -36.92205  eV     1   --> A_1  D_1  S_1  
     e(  4 -  4) =    -36.90143  eV     1   --> B_1  D_3  S_3  
     e(  5 -  5) =    -16.12572  eV     1   --> A_1  D_1  S_1  
     e(  6 -  6) =    -14.89876  eV     1   --> B_2  D_4  S_4  
     e(  7 -  7) =     -7.63050  eV     1   --> A_1  D_1  S_1  
     e(  8 -  8) =     -4.94491  eV     1   --> A_1  D_1  S_1  
     e(  9 -  9) =     -4.60602  eV     1   --> B_1  D_3  S_3  
     e( 10 - 10) =     -4.42857  eV     1   --> B_2  D_4  S_4  
     e( 11 - 11) =     -3.76622  eV     1   --> A_2  D_2  S_2  
     e( 12 - 12) =     -3.30653  eV     1   --> B_2  D_4  S_4  
     e( 13 - 13) =     -2.26648  eV     1   --> A_1  D_1  S_1  
     e( 14 - 14) =      0.51999  eV     1   --> B_2  D_4  S_4  
     e( 15 - 15) =      0.58587  eV     1   --> A_1  D_1  S_1  
     e( 16 - 16) =      0.76793  eV     1   --> B_1  D_3  S_3  
     e( 17 - 17) =      0.83921  eV     1   --> A_2  D_2  S_2  
     e( 18 - 18) =      3.27184  eV     1   --> A_1  D_1  S_1  
     e( 19 - 19) =      3.39887  eV     1   --> B_2  D_4  S_4  
     e( 20 - 20) =      4.25247  eV     1   --> A_1  D_1  S_1  
     e( 21 - 21) =      4.72140  eV     1   --> A_1  D_1  S_1  
     e( 22 - 22) =      4.76673  eV     1   --> B_2  D_4  S_4  
     e( 23 - 23) =      5.44533  eV     1   --> A_1  D_1  S_1  
     e( 24 - 24) =      6.34021  eV     1   --> B_2  D_4  S_4  
     e( 25 - 25) =      7.20846  eV     1   --> A_1  D_1  S_1  
     e( 26 - 26) =      7.44436  eV     1   --> B_2  D_4  S_4  
     e( 27 - 27) =      8.33219  eV     1   --> A_1  D_1  S_1  
     e( 28 - 28) =      8.54455  eV     1   --> B_2  D_4  S_4  
     e( 29 - 29) =      9.01171  eV     1   --> B_1  D_3  S_3  
     e( 30 - 30) =      9.48312  eV     1   --> A_1  D_1  S_1  
     e( 31 - 31) =      9.94029  eV     1   --> B_2  D_4  S_4  
     e( 32 - 32) =     10.69014  eV     1   --> A_1  D_1  S_1  
     e( 33 - 33) =     10.69730  eV     1   --> A_2  D_2  S_2  
     e( 34 - 34) =     11.27999  eV     1   --> B_2  D_4  S_4  
     e( 35 - 35) =     12.33595  eV     1   --> A_1  D_1  S_1  
     e( 36 - 36) =     13.17816  eV     1   --> B_2  D_4  S_4  
     e( 37 - 37) =     13.75690  eV     1   --> B_1  D_3  S_3  
     e( 38 - 38) =     14.02763  eV     1   --> A_1  D_1  S_1  
     e( 39 - 39) =     14.04014  eV     1   --> A_2  D_2  S_2  
     e( 40 - 40) =     14.52209  eV     1   --> B_2  D_4  S_4  
     e( 41 - 41) =     15.21164  eV     1   --> A_1  D_1  S_1  
     e( 42 - 42) =     15.28168  eV     1   --> B_2  D_4  S_4  
     e( 43 - 43) =     17.29998  eV     1   --> A_1  D_1  S_1  
     e( 44 - 44) =     18.38454  eV     1   --> B_2  D_4  S_4  
     e( 45 - 45) =     18.48425  eV     1   --> B_2  D_4  S_4  
     e( 46 - 46) =     18.76167  eV     1   --> A_1  D_1  S_1  
     e( 47 - 47) =     19.56941  eV     1   --> B_2  D_4  S_4  
     e( 48 - 48) =     19.85612  eV     1   --> A_1  D_1  S_1  
     e( 49 - 49) =     20.59670  eV     1   --> A_1  D_1  S_1  
     e( 50 - 50) =     20.76764  eV     1   --> B_1  D_3  S_3  
     e( 51 - 51) =     20.91404  eV     1   --> A_1  D_1  S_1  
     e( 52 - 52) =     21.09273  eV     1   --> A_2  D_2  S_2  
     e( 53 - 53) =     21.10926  eV     1   --> B_2  D_4  S_4  
     e( 54 - 54) =     21.53323  eV     1   --> B_2  D_4  S_4  
     e( 55 - 55) =     21.86830  eV     1   --> B_1  D_3  S_3  
     e( 56 - 56) =     21.88818  eV     1   --> A_1  D_1  S_1  
     e( 57 - 57) =     22.24890  eV     1   --> A_1  D_1  S_1  
     e( 58 - 58) =     22.47366  eV     1   --> A_1  D_1  S_1  
     e( 59 - 59) =     22.53472  eV     1   --> B_2  D_4  S_4  
     e( 60 - 60) =     22.54940  eV     1   --> B_1  D_3  S_3  

 **************************************************************************

 **************************************************************************

                    xk=(   0.00000,   0.06415,   0.00000  )

     Band symmetry, C_2v (mm2)  point group:

     e(  1 -  1) =    -62.95861  eV     1   --> A_1  D_1  S_1  
     e(  2 -  2) =    -37.12126  eV     1   --> B_2  D_4  S_4  
     e(  3 -  3) =    -36.90742  eV     1   --> A_1  D_1  S_1  
     e(  4 -  4) =    -36.89809  eV     1   --> B_1  D_3  S_3  
     e(  5 -  5) =    -16.18308  eV     1   --> A_1  D_1  S_1  
     e(  6 -  6) =    -14.92258  eV     1   --> B_2  D_4  S_4  
     e(  7 -  7) =     -7.69615  eV     1   --> A_1  D_1  S_1  
     e(  8 -  8) =     -4.82128  eV     1   --> A_1  D_1  S_1  
     e(  9 -  9) =     -4.66625  eV     1   --> B_1  D_3  S_3  
     e( 10 - 10) =     -4.23149  eV     1   --> B_2  D_4  S_4  
     e( 11 - 11) =     -3.67737  eV     1   --> A_2  D_2  S_2  
     e( 12 - 12) =     -3.41380  eV     1   --> B_2  D_4  S_4  
     e( 13 - 13) =     -2.24128  eV     1   --> A_1  D_1  S_1  
     e( 14 - 14) =      0.58752  eV     1   --> B_2  D_4  S_4  
     e( 15 - 15) =      0.73831  eV     1   --> A_1  D_1  S_1  
     e( 16 - 16) =      0.74330  eV     1   --> A_2  D_2  S_2  
     e( 17 - 17) =      0.83084  eV     1   --> B_1  D_3  S_3  
     e( 18 - 18) =      3.17343  eV     1   --> A_1  D_1  S_1  
     e( 19 - 19) =      3.32293  eV     1   --> B_2  D_4  S_4  
     e( 20 - 20) =      4.16539  eV     1   --> A_1  D_1  S_1  
     e( 21 - 21) =      4.48877  eV     1   --> A_1  D_1  S_1  
     e( 22 - 22) =      4.69098  eV     1   --> B_2  D_4  S_4  
     e( 23 - 23) =      5.36180  eV     1   --> A_1  D_1  S_1  
     e( 24 - 24) =      6.26782  eV     1   --> B_2  D_4  S_4  
     e( 25 - 25) =      7.14404  eV     1   --> A_1  D_1  S_1  
     e( 26 - 26) =      7.20185  eV     1   --> B_2  D_4  S_4  
     e( 27 - 27) =      8.48143  eV     1   --> B_2  D_4  S_4  
     e( 28 - 28) =      8.49949  eV     1   --> A_1  D_1  S_1  
     e( 29 - 29) =      8.83238  eV     1   --> B_1  D_3  S_3  
     e( 30 - 30) =      9.37769  eV     1   --> A_1  D_1  S_1  
     e( 31 - 31) =     10.28542  eV     1   --> B_2  D_4  S_4  
     e( 32 - 32) =     10.67158  eV     1   --> A_2  D_2  S_2  
     e( 33 - 33) =     10.72059  eV     1   --> A_1  D_1  S_1  
     e( 34 - 34) =     11.21964  eV     1   --> B_2  D_4  S_4  
     e( 35 - 35) =     12.33253  eV     1   --> A_1  D_1  S_1  
     e( 36 - 36) =     13.50235  eV     1   --> B_2  D_4  S_4  
     e( 37 - 37) =     13.94231  eV     1   --> A_2  D_2  S_2  
     e( 38 - 38) =     13.95264  eV     1   --> B_1  D_3  S_3  
     e( 39 - 39) =     14.07320  eV     1   --> A_1  D_1  S_1  
     e( 40 - 40) =     14.35386  eV     1   --> B_2  D_4  S_4  
     e( 41 - 41) =     14.85653  eV     1   --> B_2  D_4  S_4  
     e( 42 - 42) =     15.05165  eV     1   --> A_1  D_1  S_1  
     e( 43 - 43) =     17.13853  eV     1   --> A_1  D_1  S_1  
     e( 44 - 44) =     17.99982  eV     1   --> B_2  D_4  S_4  
     e( 45 - 45) =     18.35701  eV     1   --> B_2  D_4  S_4  
     e( 46 - 46) =     18.86673  eV     1   --> A_1  D_1  S_1  
     e( 47 - 47) =     20.28126  eV     1   --> A_1  D_1  S_1  
     e( 48 - 48) =     20.46175  eV     1   --> B_2  D_4  S_4  
     e( 49 - 49) =     20.72458  eV     1   --> B_1  D_3  S_3  
     e( 50 - 50) =     21.16402  eV     1   --> A_1  D_1  S_1  
     e( 51 - 51) =     21.46876  eV     1   --> A_2  D_2  S_2  
     e( 52 - 52) =     21.78035  eV     1   --> B_2  D_4  S_4  
     e( 53 - 53) =     21.90882  eV     1   --> A_1  D_1  S_1  
     e( 54 - 54) =     22.16096  eV     1   --> B_1  D_3  S_3  
     e( 55 - 55) =     22.19596  eV     1   --> A_1  D_1  S_1  
     e( 56 - 56) =     22.36147  eV     1   --> B_2  D_4  S_4  
     e( 57 - 57) =     22.47163  eV     1   --> B_2  D_4  S_4  
     e( 58 - 58) =     22.51040  eV     1   --> A_1  D_1  S_1  
     e( 59 - 59) =     23.01667  eV     1   --> A_1  D_1  S_1  
     e( 60 - 60) =     23.02311  eV     1   --> B_1  D_3  S_3  

 **************************************************************************

 **************************************************************************

                    xk=(   0.00000,   0.03208,   0.00000  )

     Band symmetry, C_2v (mm2)  point group:

     e(  1 -  1) =    -62.95950  eV     1   --> A_1  D_1  S_1  
     e(  2 -  2) =    -37.12301  eV     1   --> B_2  D_4  S_4  
     e(  3 -  3) =    -36.89838  eV     1   --> A_1  D_1  S_1  
     e(  4 -  4) =    -36.89603  eV     1   --> B_1  D_3  S_3  
     e(  5 -  5) =    -16.21788  eV     1   --> A_1  D_1  S_1  
     e(  6 -  6) =    -14.93704  eV     1   --> B_2  D_4  S_4  
     e(  7 -  7) =     -7.73676  eV     1   --> A_1  D_1  S_1  
     e(  8 -  8) =     -4.74240  eV     1   --> A_1  D_1  S_1  
     e(  9 -  9) =     -4.70295  eV     1   --> B_1  D_3  S_3  
     e( 10 - 10) =     -4.06088  eV     1   --> B_2  D_4  S_4  
     e( 11 - 11) =     -3.62069  eV     1   --> A_2  D_2  S_2  
     e( 12 - 12) =     -3.53373  eV     1   --> B_2  D_4  S_4  
     e( 13 - 13) =     -2.22867  eV     1   --> A_1  D_1  S_1  
     e( 14 - 14) =      0.64053  eV     1   --> B_2  D_4  S_4  
     e( 15 - 15) =      0.68177  eV     1   --> A_2  D_2  S_2  
     e( 16 - 16) =      0.84565  eV     1   --> A_1  D_1  S_1  
     e( 17 - 17) =      0.87090  eV     1   --> B_1  D_3  S_3  
     e( 18 - 18) =      3.10649  eV     1   --> A_1  D_1  S_1  
     e( 19 - 19) =      3.27690  eV     1   --> B_2  D_4  S_4  
     e( 20 - 20) =      4.10512  eV     1   --> A_1  D_1  S_1  
     e( 21 - 21) =      4.34802  eV     1   --> A_1  D_1  S_1  
     e( 22 - 22) =      4.64542  eV     1   --> B_2  D_4  S_4  
     e( 23 - 23) =      5.31251  eV     1   --> A_1  D_1  S_1  
     e( 24 - 24) =      6.22411  eV     1   --> B_2  D_4  S_4  
     e( 25 - 25) =      7.04105  eV     1   --> B_2  D_4  S_4  
     e( 26 - 26) =      7.10377  eV     1   --> A_1  D_1  S_1  
     e( 27 - 27) =      8.44171  eV     1   --> B_2  D_4  S_4  
     e( 28 - 28) =      8.63106  eV     1   --> A_1  D_1  S_1  
     e( 29 - 29) =      8.72197  eV     1   --> B_1  D_3  S_3  
     e( 30 - 30) =      9.29200  eV     1   --> A_1  D_1  S_1  
     e( 31 - 31) =     10.55150  eV     1   --> B_2  D_4  S_4  
     e( 32 - 32) =     10.65868  eV     1   --> A_2  D_2  S_2  
     e( 33 - 33) =     10.72629  eV     1   --> A_1  D_1  S_1  
     e( 34 - 34) =     11.17911  eV     1   --> B_2  D_4  S_4  
     e( 35 - 35) =     12.33245  eV     1   --> A_1  D_1  S_1  
     e( 36 - 36) =     13.75711  eV     1   --> B_2  D_4  S_4  
     e( 37 - 37) =     13.88057  eV     1   --> A_2  D_2  S_2  
     e( 38 - 38) =     14.07728  eV     1   --> B_1  D_3  S_3  
     e( 39 - 39) =     14.10738  eV     1   --> A_1  D_1  S_1  
     e( 40 - 40) =     14.16288  eV     1   --> B_2  D_4  S_4  
     e( 41 - 41) =     14.62494  eV     1   --> B_2  D_4  S_4  
     e( 42 - 42) =     14.94857  eV     1   --> A_1  D_1  S_1  
     e( 43 - 43) =     17.03935  eV     1   --> A_1  D_1  S_1  
     e( 44 - 44) =     17.68882  eV     1   --> B_2  D_4  S_4  
     e( 45 - 45) =     18.30514  eV     1   --> B_2  D_4  S_4  
     e( 46 - 46) =     18.91772  eV     1   --> A_1  D_1  S_1  
     e( 47 - 47) =     20.52227  eV     1   --> A_1  D_1  S_1  
     e( 48 - 48) =     20.65045  eV     1   --> B_1  D_3  S_3  
     e( 49 - 49) =     21.34967  eV     1   --> B_2  D_4  S_4  
     e( 50 - 50) =     21.82809  eV     1   --> A_1  D_1  S_1  
     e( 51 - 51) =     21.82871  eV     1   --> A_2  D_2  S_2  
     e( 52 - 52) =     22.08928  eV     1   --> A_1  D_1  S_1  
     e( 53 - 53) =     22.29091  eV     1   --> B_2  D_4  S_4  
     e( 54 - 54) =     22.47940  eV     1   --> B_2  D_4  S_4  
     e( 55 - 55) =     22.50989  eV     1   --> B_1  D_3  S_3  
     e( 56 - 56) =     22.85094  eV     1   --> A_1  D_1  S_1  
     e( 57 - 57) =     23.03500  eV     1   --> A_2  D_2  S_2  
     e( 58 - 58) =     23.06113  eV     1   --> A_1  D_1  S_1  
     e( 59 - 59) =     23.07908  eV     1   --> B_2  D_4  S_4  
     e( 60 - 60) =     23.36944  eV     1   --> A_1  D_1  S_1  

 **************************************************************************

 **************************************************************************

                    xk=(   0.00000,   0.00000,   0.00000  )

     point group D_3h (-62m)
     there are  6 classes
     the character table:

       E     2C3   3C2   s_h   2S3   3s_v 
A'_1   1.00  1.00  1.00  1.00  1.00  1.00
A'_2   1.00  1.00 -1.00  1.00  1.00 -1.00
E'     2.00 -1.00  0.00  2.00 -1.00  0.00
A''1   1.00  1.00  1.00 -1.00 -1.00 -1.00
A''2   1.00  1.00 -1.00 -1.00 -1.00  1.00
E''    2.00 -1.00  0.00 -2.00  1.00  0.00

     the symmetry operations in each class and the name of the first element:

     E        1
                                                                 
     2C3      3    4
                                                                 
     3C2      2    6    5
                                                                 
     s_h      7
                                                                 
     2S3      9   10
                                                                 
     3s_v     8   11   12
                                                                 

     Band symmetry, D_3h (-62m) point group:

     e(  1 -  1) =    -62.95980  eV     1   --> A'_1           
     e(  2 -  2) =    -37.12363  eV     1   --> A''2           
     e(  3 -  4) =    -36.89539  eV     2   --> E'             
     e(  5 -  5) =    -16.22955  eV     1   --> A'_1           
     e(  6 -  6) =    -14.94189  eV     1   --> A''2           
     e(  7 -  7) =     -7.75049  eV     1   --> A'_1           
     e(  8 -  9) =     -4.71528  eV     2   --> E'             
     e( 10 - 10) =     -3.97712  eV     1   --> A''2           
     e( 11 - 12) =     -3.60121  eV     2   --> E''            
     e( 13 - 13) =     -2.22489  eV     1   --> A'_1           
     e( 14 - 15) =      0.66052  eV     2   --> E''            
     e( 16 - 17) =      0.88463  eV     2   --> E'             
     e( 18 - 18) =      3.08228  eV     1   --> A'_1           
     e( 19 - 19) =      3.26146  eV     1   --> A''2           
     e( 20 - 20) =      4.08199  eV     1   --> A'_1           
     e( 21 - 21) =      4.30271  eV     1   --> A'_1           
     e( 22 - 22) =      4.63021  eV     1   --> A''2           
     e( 23 - 23) =      5.29615  eV     1   --> A'_1           
     e( 24 - 24) =      6.20950  eV     1   --> A''2           
     e( 25 - 25) =      6.98488  eV     1   --> A''2           
     e( 26 - 26) =      7.09009  eV     1   --> A'_1           
     e( 27 - 27) =      8.42823  eV     1   --> A''2           
     e( 28 - 29) =      8.68467  eV     2   --> E'             
     e( 30 - 30) =      9.25541  eV     1   --> A'_1           
     e( 31 - 32) =     10.65481  eV     2   --> E''            
     e( 33 - 33) =     10.72554  eV     1   --> A'_1           
     e( 34 - 34) =     11.16417  eV     1   --> A''2           
     e( 35 - 35) =     12.33289  eV     1   --> A'_1           
     e( 36 - 37) =     13.85942  eV     2   --> E''            
     e( 38 - 38) =     14.07197  eV     1   --> A''2           
     e( 39 - 40) =     14.12012  eV     2   --> E'             
     e( 41 - 41) =     14.55524  eV     1   --> A''2           
     e( 42 - 42) =     14.91268  eV     1   --> A'_1           
     e( 43 - 43) =     17.00632  eV     1   --> A'_1           
     e( 44 - 44) =     17.57321  eV     1   --> A''2           
     e( 45 - 45) =     18.28823  eV     1   --> A''2           
     e( 46 - 46) =     18.93320  eV     1   --> A'_1           
     e( 47 - 48) =     20.61948  eV     2   --> E'             
     e( 49 - 49) =     21.82505  eV     1   --> A'_1           
     e( 50 - 51) =     22.02507  eV     2   --> E''            
     e( 52 - 52) =     22.24508  eV     1   --> A''2           
     e( 53 - 53) =     22.62705  eV     1   --> A''2           
     e( 54 - 55) =     22.69818  eV     2   --> E'             
     e( 56 - 56) =     22.78693  eV     1   --> A'_1           
     e( 57 - 58) =     22.83887  eV     2   --> E''            
     e( 59 - 59) =     23.28957  eV     1   --> A'_1           
     e( 60 - 60) =     23.42353  eV     1   --> A''2           

 **************************************************************************

     BANDS        :     36.80s CPU     38.89s WALL


   This run was terminated on:  10: 5:30  18Apr2024            

=------------------------------------------------------------------------------=
   JOB DONE.
=------------------------------------------------------------------------------=
