
     Program PWSCF v.7.2 starts on 18Apr2024 at 10:29:25 

     This program is part of the open-source Quantum ESPRESSO suite
     for quantum simulation of materials; please cite
         "P. Giannozzi et al., J. Phys.:Condens. Matter 21 395502 (2009);
         "P. Giannozzi et al., J. Phys.:Condens. Matter 29 465901 (2017);
         "P. Giannozzi et al., J. Chem. Phys. 152 154105 (2020);
          URL http://www.quantum-espresso.org", 
     in publications or presentations arising from this work. More details at
     http://www.quantum-espresso.org/quote

     Parallel version (MPI & OpenMP), running on       8 processor cores
     Number of MPI processes:                 8
     Threads/MPI process:                     1

     MPI processes distributed on     1 nodes
     0 MiB available memory on the printing compute node when the environment starts

     Waiting for input...
     Reading input from standard input
Warning: card &IONS ignored
Warning: card     ION_DYNAMICS='BFGS', ignored
Warning: card     UPSCALE=10 ignored
Warning: card / ignored

     Current dimensions of program PWSCF are:
     Max number of different atomic species (ntypx) = 10
     Max number of k-points (npk) =  40000
     Max angular momentum in pseudopotentials (lmaxx) =  4

     Atomic positions and unit cell read from directory:
     ./tmp/MoS2_1L_pbe_vdW_wsoc.save/
     Atomic positions from file used, from input discarded


     R & G space division:  proc/nbgrp/npool/nimage =       8
     Subspace diagonalization in iterative solution of the eigenvalue problem:
     a serial algorithm will be used


     Parallelization info
     --------------------
     sticks:   dense  smooth     PW     G-vecs:    dense   smooth      PW
     Min          85      85     24                14691    14691    2318
     Max          86      86     25                14716    14716    2353
     Sum         685     685    199               117663   117663   18769

     Using Slab Decomposition



     bravais-lattice index     =            4
     lattice parameter (alat)  =       5.9892  a.u.
     unit-cell volume          =    1488.4254 (a.u.)^3
     number of atoms/cell      =            3
     number of atomic types    =            2
     number of electrons       =        26.00
     number of Kohn-Sham states=           50
     kinetic-energy cutoff     =      70.0000  Ry
     charge density cutoff     =     280.0000  Ry
     Exchange-correlation= PBE
                           (   1   4   3   4   0   0   0)
     Non magnetic calculation with spin-orbit


     celldm(1)=   5.989200  celldm(2)=   0.000000  celldm(3)=   8.000000
     celldm(4)=   0.000000  celldm(5)=   0.000000  celldm(6)=   0.000000

     crystal axes: (cart. coord. in units of alat)
               a(1) = (   1.000000   0.000000   0.000000 )  
               a(2) = (  -0.500000   0.866025   0.000000 )  
               a(3) = (   0.000000   0.000000   8.000000 )  

     reciprocal axes: (cart. coord. in units 2 pi/alat)
               b(1) = (  1.000000  0.577350 -0.000000 )  
               b(2) = (  0.000000  1.154701  0.000000 )  
               b(3) = (  0.000000 -0.000000  0.125000 )  


     PseudoPot. # 1 for S  read from file:
     ../../../Pseudo/PBE/S_FR.upf
     MD5 check sum: a7319d53700e7dada26ada44d0048388
     Pseudo is Norm-conserving + core correction, Zval =  6.0
     Generated using ONCVPSP code by D. R. Hamann
     Using radial grid of 1146 points, 10 beta functions with: 
                l(1) =   0
                l(2) =   0
                l(3) =   1
                l(4) =   1
                l(5) =   1
                l(6) =   1
                l(7) =   2
                l(8) =   2
                l(9) =   2
               l(10) =   2

     PseudoPot. # 2 for Mo read from file:
     ../../../Pseudo/PBE/Mo_FR.upf
     MD5 check sum: 4e1c3579de4f68baf863f15f5be96aa1
     Pseudo is Norm-conserving + core correction, Zval = 14.0
     Generated using ONCVPSP code by D. R. Hamann
     Using radial grid of 1640 points, 10 beta functions with: 
                l(1) =   0
                l(2) =   0
                l(3) =   1
                l(4) =   1
                l(5) =   1
                l(6) =   1
                l(7) =   2
                l(8) =   2
                l(9) =   2
               l(10) =   2

     atomic species   valence    mass     pseudopotential
        S              6.00    32.06500     S ( 1.00)
        Mo            14.00   183.84000     Mo( 1.00)

     12 Sym. Ops. (no inversion) found


                                    s                        frac. trans.

      isym =  1     identity                                     

 cryst.   s( 1) = (     1          0          0      )
                  (     0          1          0      )
                  (     0          0          1      )

 cart.    s( 1) = (  1.0000000  0.0000000  0.0000000 )
                  (  0.0000000  1.0000000  0.0000000 )
                  (  0.0000000  0.0000000  1.0000000 )


      isym =  2     180 deg rotation - cart. axis [0,1,0]        

 cryst.   s( 2) = (    -1          0          0      )
                  (     1          1          0      )
                  (     0          0         -1      )

 cart.    s( 2) = ( -1.0000000  0.0000000  0.0000000 )
                  (  0.0000000  1.0000000  0.0000000 )
                  (  0.0000000  0.0000000 -1.0000000 )


      isym =  3     120 deg rotation - cryst. axis [0,0,1]       

 cryst.   s( 3) = (     0          1          0      )
                  (    -1         -1          0      )
                  (     0          0          1      )

 cart.    s( 3) = ( -0.5000000 -0.8660254  0.0000000 )
                  (  0.8660254 -0.5000000  0.0000000 )
                  (  0.0000000  0.0000000  1.0000000 )


      isym =  4     120 deg rotation - cryst. axis [0,0,-1]      

 cryst.   s( 4) = (    -1         -1          0      )
                  (     1          0          0      )
                  (     0          0          1      )

 cart.    s( 4) = ( -0.5000000  0.8660254  0.0000000 )
                  ( -0.8660254 -0.5000000  0.0000000 )
                  (  0.0000000  0.0000000  1.0000000 )


      isym =  5     180 deg rotation - cryst. axis [1,-1,0]      

 cryst.   s( 5) = (     0         -1          0      )
                  (    -1          0          0      )
                  (     0          0         -1      )

 cart.    s( 5) = (  0.5000000 -0.8660254  0.0000000 )
                  ( -0.8660254 -0.5000000  0.0000000 )
                  (  0.0000000  0.0000000 -1.0000000 )


      isym =  6     180 deg rotation - cryst. axis [2,1,0]       

 cryst.   s( 6) = (     1          1          0      )
                  (     0         -1          0      )
                  (     0          0         -1      )

 cart.    s( 6) = (  0.5000000  0.8660254  0.0000000 )
                  (  0.8660254 -0.5000000  0.0000000 )
                  (  0.0000000  0.0000000 -1.0000000 )


      isym =  7     inv. 180 deg rotation - cart. axis [0,0,1]   

 cryst.   s( 7) = (     1          0          0      )
                  (     0          1          0      )
                  (     0          0         -1      )

 cart.    s( 7) = (  1.0000000  0.0000000  0.0000000 )
                  (  0.0000000  1.0000000  0.0000000 )
                  (  0.0000000  0.0000000 -1.0000000 )


      isym =  8     inv. 180 deg rotation - cart. axis [1,0,0]   

 cryst.   s( 8) = (    -1          0          0      )
                  (     1          1          0      )
                  (     0          0          1      )

 cart.    s( 8) = ( -1.0000000  0.0000000  0.0000000 )
                  (  0.0000000  1.0000000  0.0000000 )
                  (  0.0000000  0.0000000  1.0000000 )


      isym =  9     inv.  60 deg rotation - cryst. axis [0,0,1]  

 cryst.   s( 9) = (    -1         -1          0      )
                  (     1          0          0      )
                  (     0          0         -1      )

 cart.    s( 9) = ( -0.5000000  0.8660254  0.0000000 )
                  ( -0.8660254 -0.5000000  0.0000000 )
                  (  0.0000000  0.0000000 -1.0000000 )


      isym = 10     inv.  60 deg rotation - cryst. axis [0,0,-1] 

 cryst.   s(10) = (     0          1          0      )
                  (    -1         -1          0      )
                  (     0          0         -1      )

 cart.    s(10) = ( -0.5000000 -0.8660254  0.0000000 )
                  (  0.8660254 -0.5000000  0.0000000 )
                  (  0.0000000  0.0000000 -1.0000000 )


      isym = 11     inv. 180 deg rotation - cryst. axis [0,1,0]  

 cryst.   s(11) = (     1          1          0      )
                  (     0         -1          0      )
                  (     0          0          1      )

 cart.    s(11) = (  0.5000000  0.8660254  0.0000000 )
                  (  0.8660254 -0.5000000  0.0000000 )
                  (  0.0000000  0.0000000  1.0000000 )


      isym = 12     inv. 180 deg rotation - cryst. axis [1,1,0]  

 cryst.   s(12) = (     0         -1          0      )
                  (    -1          0          0      )
                  (     0          0          1      )

 cart.    s(12) = (  0.5000000 -0.8660254  0.0000000 )
                  ( -0.8660254 -0.5000000  0.0000000 )
                  (  0.0000000  0.0000000  1.0000000 )


     double point group D_3h (-62m)
     there are  9 classes and  3 irreducible representations
     the character table:

       E     -E    2C3   -2C3   3C2'  s_h  2S3   -2S3   3s_v
                               -3C2' -s_h'             -3s_v
G_7    2.00 -2.00  1.00 -1.00  0.00  0.00  1.73 -1.73  0.00
G_8    2.00 -2.00  1.00 -1.00  0.00  0.00 -1.73  1.73  0.00
G_9    2.00 -2.00 -2.00  2.00  0.00  0.00  0.00  0.00  0.00

     the symmetry operations in each class and the name of the first element:

     E             1
          identity                                               
     -E           -1
          identity E                                             
     2C3           3    4
          120 deg rotation - cryst. axis [0,0,1]                 
     -2C3         -3   -4
          120 deg rotation - cryst. axis [0,0,1] E               
      3C2'-3C2'    2   -6    5   -2   -5    6
          180 deg rotation - cart. axis [0,1,0]                  
      s_h -s_h'    7   -7
          inv. 180 deg rotation - cart. axis [0,0,1]             
     2S3           9   10
          inv.  60 deg rotation - cryst. axis [0,0,1]            
     -2S3         -9  -10
          inv.  60 deg rotation - cryst. axis [0,0,1] E          
      3s_v-3s_v    8   -8  -11  -12   11   12
          inv. 180 deg rotation - cart. axis [1,0,0]             

   Cartesian axes

     site n.     atom                  positions (alat units)
         1           Mo  tau(   1) = (  -0.0000003   0.5773503   0.0000000  )
         2           S   tau(   2) = (   0.5000002   0.2886748   0.4951576  )
         3           S   tau(   3) = (   0.5000002   0.2886748  -0.4951576  )

   Crystallographic axes

     site n.     atom                  positions (cryst. coord.)
         1           Mo  tau(   1) = (  0.3333330  0.6666667  0.0000000  )
         2           S   tau(   2) = (  0.6666667  0.3333330  0.0618947  )
         3           S   tau(   3) = (  0.6666667  0.3333330 -0.0618947  )

     number of k points=    51  Marzari-Vanderbilt smearing, width (Ry)=  0.0050
                       cart. coord. in units 2pi/alat
        k(    1) = (   0.0000000   0.0000000   0.0000000), wk =   0.0196078
        k(    2) = (  -0.0158729   0.0274930   0.0000000), wk =   0.0196078
        k(    3) = (  -0.0317457   0.0549860   0.0000000), wk =   0.0196078
        k(    4) = (  -0.0476186   0.0824789   0.0000000), wk =   0.0196078
        k(    5) = (  -0.0634914   0.1099719   0.0000000), wk =   0.0196078
        k(    6) = (  -0.0793643   0.1374649   0.0000000), wk =   0.0196078
        k(    7) = (  -0.0952371   0.1649579   0.0000000), wk =   0.0196078
        k(    8) = (  -0.1111100   0.1924509   0.0000000), wk =   0.0196078
        k(    9) = (  -0.1269829   0.2199438   0.0000000), wk =   0.0196078
        k(   10) = (  -0.1428557   0.2474368   0.0000000), wk =   0.0196078
        k(   11) = (  -0.1587286   0.2749298   0.0000000), wk =   0.0196078
        k(   12) = (  -0.1746014   0.3024228   0.0000000), wk =   0.0196078
        k(   13) = (  -0.1904743   0.3299158   0.0000000), wk =   0.0196078
        k(   14) = (  -0.2063471   0.3574087   0.0000000), wk =   0.0196078
        k(   15) = (  -0.2222200   0.3849017   0.0000000), wk =   0.0196078
        k(   16) = (  -0.2380929   0.4123947   0.0000000), wk =   0.0196078
        k(   17) = (  -0.2539657   0.4398877   0.0000000), wk =   0.0196078
        k(   18) = (  -0.2698386   0.4673807   0.0000000), wk =   0.0196078
        k(   19) = (  -0.2857114   0.4948736   0.0000000), wk =   0.0196078
        k(   20) = (  -0.3015843   0.5223666   0.0000000), wk =   0.0196078
        k(   21) = (  -0.3174571   0.5498596   0.0000000), wk =   0.0196078
        k(   22) = (  -0.3333300   0.5773526   0.0000000), wk =   0.0196078
        k(   23) = (  -0.3030273   0.5773524   0.0000000), wk =   0.0196078
        k(   24) = (  -0.2727245   0.5773522   0.0000000), wk =   0.0196078
        k(   25) = (  -0.2424218   0.5773519   0.0000000), wk =   0.0196078
        k(   26) = (  -0.2121191   0.5773517   0.0000000), wk =   0.0196078
        k(   27) = (  -0.1818164   0.5773515   0.0000000), wk =   0.0196078
        k(   28) = (  -0.1515136   0.5773513   0.0000000), wk =   0.0196078
        k(   29) = (  -0.1212109   0.5773511   0.0000000), wk =   0.0196078
        k(   30) = (  -0.0909082   0.5773509   0.0000000), wk =   0.0196078
        k(   31) = (  -0.0606055   0.5773507   0.0000000), wk =   0.0196078
        k(   32) = (  -0.0303027   0.5773505   0.0000000), wk =   0.0196078
        k(   33) = (   0.0000000   0.5773503   0.0000000), wk =   0.0196078
        k(   34) = (   0.0000000   0.5452753   0.0000000), wk =   0.0196078
        k(   35) = (   0.0000000   0.5132002   0.0000000), wk =   0.0196078
        k(   36) = (   0.0000000   0.4811252   0.0000000), wk =   0.0196078
        k(   37) = (   0.0000000   0.4490502   0.0000000), wk =   0.0196078
        k(   38) = (   0.0000000   0.4169752   0.0000000), wk =   0.0196078
        k(   39) = (   0.0000000   0.3849002   0.0000000), wk =   0.0196078
        k(   40) = (   0.0000000   0.3528252   0.0000000), wk =   0.0196078
        k(   41) = (   0.0000000   0.3207501   0.0000000), wk =   0.0196078
        k(   42) = (   0.0000000   0.2886751   0.0000000), wk =   0.0196078
        k(   43) = (   0.0000000   0.2566001   0.0000000), wk =   0.0196078
        k(   44) = (   0.0000000   0.2245251   0.0000000), wk =   0.0196078
        k(   45) = (   0.0000000   0.1924501   0.0000000), wk =   0.0196078
        k(   46) = (   0.0000000   0.1603751   0.0000000), wk =   0.0196078
        k(   47) = (   0.0000000   0.1283001   0.0000000), wk =   0.0196078
        k(   48) = (   0.0000000   0.0962250   0.0000000), wk =   0.0196078
        k(   49) = (   0.0000000   0.0641500   0.0000000), wk =   0.0196078
        k(   50) = (   0.0000000   0.0320750   0.0000000), wk =   0.0196078
        k(   51) = (   0.0000000   0.0000000   0.0000000), wk =   0.0196078

                       cryst. coord.
        k(    1) = (   0.0000000   0.0000000   0.0000000), wk =   0.0196078
        k(    2) = (  -0.0158729   0.0317460   0.0000000), wk =   0.0196078
        k(    3) = (  -0.0317457   0.0634921   0.0000000), wk =   0.0196078
        k(    4) = (  -0.0476186   0.0952381   0.0000000), wk =   0.0196078
        k(    5) = (  -0.0634914   0.1269842   0.0000000), wk =   0.0196078
        k(    6) = (  -0.0793643   0.1587302   0.0000000), wk =   0.0196078
        k(    7) = (  -0.0952371   0.1904763   0.0000000), wk =   0.0196078
        k(    8) = (  -0.1111100   0.2222223   0.0000000), wk =   0.0196078
        k(    9) = (  -0.1269829   0.2539684   0.0000000), wk =   0.0196078
        k(   10) = (  -0.1428557   0.2857144   0.0000000), wk =   0.0196078
        k(   11) = (  -0.1587286   0.3174605   0.0000000), wk =   0.0196078
        k(   12) = (  -0.1746014   0.3492065   0.0000000), wk =   0.0196078
        k(   13) = (  -0.1904743   0.3809526   0.0000000), wk =   0.0196078
        k(   14) = (  -0.2063471   0.4126986   0.0000000), wk =   0.0196078
        k(   15) = (  -0.2222200   0.4444447   0.0000000), wk =   0.0196078
        k(   16) = (  -0.2380929   0.4761907   0.0000000), wk =   0.0196078
        k(   17) = (  -0.2539657   0.5079368   0.0000000), wk =   0.0196078
        k(   18) = (  -0.2698386   0.5396828   0.0000000), wk =   0.0196078
        k(   19) = (  -0.2857114   0.5714289   0.0000000), wk =   0.0196078
        k(   20) = (  -0.3015843   0.6031749   0.0000000), wk =   0.0196078
        k(   21) = (  -0.3174571   0.6349210   0.0000000), wk =   0.0196078
        k(   22) = (  -0.3333300   0.6666670   0.0000000), wk =   0.0196078
        k(   23) = (  -0.3030273   0.6515155   0.0000000), wk =   0.0196078
        k(   24) = (  -0.2727245   0.6363639   0.0000000), wk =   0.0196078
        k(   25) = (  -0.2424218   0.6212124   0.0000000), wk =   0.0196078
        k(   26) = (  -0.2121191   0.6060608   0.0000000), wk =   0.0196078
        k(   27) = (  -0.1818164   0.5909093   0.0000000), wk =   0.0196078
        k(   28) = (  -0.1515136   0.5757577   0.0000000), wk =   0.0196078
        k(   29) = (  -0.1212109   0.5606062   0.0000000), wk =   0.0196078
        k(   30) = (  -0.0909082   0.5454546   0.0000000), wk =   0.0196078
        k(   31) = (  -0.0606055   0.5303031   0.0000000), wk =   0.0196078
        k(   32) = (  -0.0303027   0.5151515   0.0000000), wk =   0.0196078
        k(   33) = (   0.0000000   0.5000000   0.0000000), wk =   0.0196078
        k(   34) = (   0.0000000   0.4722222   0.0000000), wk =   0.0196078
        k(   35) = (   0.0000000   0.4444444   0.0000000), wk =   0.0196078
        k(   36) = (   0.0000000   0.4166667   0.0000000), wk =   0.0196078
        k(   37) = (   0.0000000   0.3888889   0.0000000), wk =   0.0196078
        k(   38) = (   0.0000000   0.3611111   0.0000000), wk =   0.0196078
        k(   39) = (   0.0000000   0.3333333   0.0000000), wk =   0.0196078
        k(   40) = (   0.0000000   0.3055556   0.0000000), wk =   0.0196078
        k(   41) = (   0.0000000   0.2777778   0.0000000), wk =   0.0196078
        k(   42) = (   0.0000000   0.2500000   0.0000000), wk =   0.0196078
        k(   43) = (   0.0000000   0.2222222   0.0000000), wk =   0.0196078
        k(   44) = (   0.0000000   0.1944444   0.0000000), wk =   0.0196078
        k(   45) = (   0.0000000   0.1666667   0.0000000), wk =   0.0196078
        k(   46) = (   0.0000000   0.1388889   0.0000000), wk =   0.0196078
        k(   47) = (   0.0000000   0.1111111   0.0000000), wk =   0.0196078
        k(   48) = (   0.0000000   0.0833333   0.0000000), wk =   0.0196078
        k(   49) = (   0.0000000   0.0555556   0.0000000), wk =   0.0196078
        k(   50) = (   0.0000000   0.0277778   0.0000000), wk =   0.0196078
        k(   51) = (   0.0000000   0.0000000   0.0000000), wk =   0.0196078

     Dense  grid:   117663 G-vectors     FFT dimensions: (  32,  32, 256)

     Dynamical RAM for                 wfc:       2.81 MB

     Dynamical RAM for     wfc (w. buffer):       2.81 MB

     Dynamical RAM for           str. fact:       0.45 MB

     Dynamical RAM for           local pot:       0.00 MB

     Dynamical RAM for          nlocal pot:       2.86 MB

     Dynamical RAM for                qrad:       7.04 MB

     Dynamical RAM for          rho,v,vnew:       5.69 MB

     Dynamical RAM for           G-vectors:       0.95 MB

     Dynamical RAM for          h,s,v(r/c):       0.46 MB

     Dynamical RAM for          <psi|beta>:       0.16 MB

     Dynamical RAM for                 psi:       5.62 MB

     Dynamical RAM for                hpsi:       5.62 MB

     Dynamical RAM for      wfcinit/wfcrot:       4.27 MB

     Estimated static dynamical RAM per process >      22.47 MB

     Estimated max dynamical RAM per process >      34.32 MB

     Estimated total dynamical RAM >     274.54 MB

     The potential is recalculated from file :
     ./tmp/MoS2_1L_pbe_vdW_wsoc.save/charge-density

     Starting wfcs are   36 randomized atomic wfcs +   14 random wfcs

     Band Structure Calculation
     Davidson diagonalization with overlap

     Computing kpt #:     1  of    51
     total cpu time spent up to now is        5.8 secs

     Computing kpt #:     2  of    51
     total cpu time spent up to now is       10.7 secs

     Computing kpt #:     3  of    51
     total cpu time spent up to now is       16.2 secs

     Computing kpt #:     4  of    51
     total cpu time spent up to now is       21.7 secs

     Computing kpt #:     5  of    51
     total cpu time spent up to now is       27.1 secs

     Computing kpt #:     6  of    51
     total cpu time spent up to now is       32.9 secs

     Computing kpt #:     7  of    51
     total cpu time spent up to now is       38.7 secs

     Computing kpt #:     8  of    51
     total cpu time spent up to now is       44.2 secs

     Computing kpt #:     9  of    51
     total cpu time spent up to now is       49.7 secs

     Computing kpt #:    10  of    51
     total cpu time spent up to now is       55.2 secs

     Computing kpt #:    11  of    51
     total cpu time spent up to now is       61.1 secs

     Computing kpt #:    12  of    51
     total cpu time spent up to now is       67.1 secs

     Computing kpt #:    13  of    51
     total cpu time spent up to now is       72.9 secs

     Computing kpt #:    14  of    51
     total cpu time spent up to now is       78.2 secs

     Computing kpt #:    15  of    51
     total cpu time spent up to now is       83.4 secs

     Computing kpt #:    16  of    51
     total cpu time spent up to now is       88.7 secs

     Computing kpt #:    17  of    51
     total cpu time spent up to now is       93.9 secs

     Computing kpt #:    18  of    51
     total cpu time spent up to now is       99.2 secs

     Computing kpt #:    19  of    51
     total cpu time spent up to now is      105.0 secs

     Computing kpt #:    20  of    51
     c_bands:  2 eigenvalues not converged
     total cpu time spent up to now is      112.6 secs

     Computing kpt #:    21  of    51
     total cpu time spent up to now is      118.3 secs

     Computing kpt #:    22  of    51
     total cpu time spent up to now is      123.5 secs

     Computing kpt #:    23  of    51
     total cpu time spent up to now is      129.3 secs

     Computing kpt #:    24  of    51
     total cpu time spent up to now is      135.0 secs

     Computing kpt #:    25  of    51
     total cpu time spent up to now is      140.2 secs

     Computing kpt #:    26  of    51
     total cpu time spent up to now is      145.2 secs

     Computing kpt #:    27  of    51
     total cpu time spent up to now is      149.8 secs

     Computing kpt #:    28  of    51
     total cpu time spent up to now is      154.3 secs

     Computing kpt #:    29  of    51
     total cpu time spent up to now is      158.9 secs

     Computing kpt #:    30  of    51
     total cpu time spent up to now is      163.4 secs

     Computing kpt #:    31  of    51
     total cpu time spent up to now is      168.4 secs

     Computing kpt #:    32  of    51
     total cpu time spent up to now is      173.6 secs

     Computing kpt #:    33  of    51
     total cpu time spent up to now is      178.4 secs

     Computing kpt #:    34  of    51
     total cpu time spent up to now is      183.3 secs

     Computing kpt #:    35  of    51
     total cpu time spent up to now is      187.9 secs

     Computing kpt #:    36  of    51
     total cpu time spent up to now is      192.5 secs

     Computing kpt #:    37  of    51
     total cpu time spent up to now is      196.9 secs

     Computing kpt #:    38  of    51
     total cpu time spent up to now is      201.0 secs

     Computing kpt #:    39  of    51
     total cpu time spent up to now is      205.2 secs

     Computing kpt #:    40  of    51
     total cpu time spent up to now is      209.5 secs

     Computing kpt #:    41  of    51
     total cpu time spent up to now is      214.2 secs

     Computing kpt #:    42  of    51
     total cpu time spent up to now is      219.1 secs

     Computing kpt #:    43  of    51
     total cpu time spent up to now is      224.2 secs

     Computing kpt #:    44  of    51
     total cpu time spent up to now is      229.4 secs

     Computing kpt #:    45  of    51
     total cpu time spent up to now is      234.6 secs

     Computing kpt #:    46  of    51
     total cpu time spent up to now is      239.8 secs

     Computing kpt #:    47  of    51
     total cpu time spent up to now is      244.7 secs

     Computing kpt #:    48  of    51
     total cpu time spent up to now is      249.9 secs

     Computing kpt #:    49  of    51
     total cpu time spent up to now is      255.1 secs

     Computing kpt #:    50  of    51
     total cpu time spent up to now is      260.6 secs

     Computing kpt #:    51  of    51
     total cpu time spent up to now is      265.7 secs

     ethr =  3.85E-10,  avg # of iterations = 59.8

     total cpu time spent up to now is      265.7 secs

     End of band structure calculation

          k = 0.0000 0.0000 0.0000 ( 14593 PWs)   bands (ev):

   -62.8070 -62.8070 -38.5329 -38.5329 -36.1066 -36.1066 -35.9456 -35.9456
   -16.0826 -16.0826 -14.7927 -14.7927  -7.6010  -7.6010  -4.5755  -4.5755
    -4.5098  -4.5098  -3.7918  -3.7918  -3.4758  -3.4758  -3.3908  -3.3908
    -2.0230  -2.0230   0.7791   0.7791   0.8581   0.8581   1.0564   1.0564
     1.0579   1.0579   3.4443   3.4443   3.6053   3.6053   4.0919   4.0919
     4.4322   4.4322   4.6909   4.6909   5.3648   5.3648   6.2823   6.2823
     7.0931   7.0931

          k =-0.0159 0.0275 0.0000 ( 14560 PWs)   bands (ev):

   -62.8067 -62.8067 -38.5337 -38.5337 -36.1069 -36.1069 -35.9475 -35.9475
   -16.0711 -16.0711 -14.7879 -14.7879  -7.5877  -7.5877  -4.5889  -4.5873
    -4.5130  -4.5114  -3.8772  -3.8770  -3.4680  -3.4648  -3.3522  -3.3490
    -2.0273  -2.0273   0.7735   0.7778   0.8600   0.8636   1.0192   1.0246
     1.0416   1.0466   3.4669   3.4670   3.6204   3.6204   4.1124   4.1124
     4.4785   4.4785   4.7057   4.7057   5.3811   5.3811   6.2965   6.2965
     7.1485   7.1485

          k =-0.0317 0.0550 0.0000 ( 14584 PWs)   bands (ev):

   -62.8058 -62.8058 -38.5361 -38.5360 -36.1079 -36.1079 -35.9534 -35.9532
   -16.0371 -16.0370 -14.7736 -14.7736  -7.5482  -7.5481  -4.6568  -4.6513
    -4.4918  -4.4863  -4.0472  -4.0469  -3.5182  -3.5108  -3.2435  -3.2351
    -2.0415  -2.0414   0.7306   0.7465   0.8894   0.8899   0.9276   0.9480
     1.0046   1.0103   3.5297   3.5299   3.6653   3.6653   4.1690   4.1691
     4.6181   4.6185   4.7502   4.7502   5.4304   5.4304   6.3392   6.3392
     7.2075   7.2075

          k =-0.0476 0.0825 0.0000 ( 14580 PWs)   bands (ev):

   -62.8044 -62.8044 -38.5399 -38.5397 -36.1097 -36.1095 -35.9628 -35.9623
   -15.9810 -15.9806 -14.7501 -14.7501  -7.4843  -7.4839  -4.7769  -4.7685
    -4.4396  -4.4327  -4.2402  -4.2365  -3.6165  -3.6070  -3.1335  -3.1198
    -2.0690  -2.0685   0.6598   0.6804   0.7761   0.7779   0.9227   0.9448
     0.9958   1.0354   3.6231   3.6236   3.7396   3.7397   4.2547   4.2548
     4.8240   4.8241   4.8456   4.8467   5.5143   5.5145   6.4099   6.4099
     7.2712   7.2713

          k =-0.0635 0.1100 0.0000 ( 14614 PWs)   bands (ev):

   -62.8025 -62.8025 -38.5453 -38.5448 -36.1125 -36.1120 -35.9754 -35.9742
   -15.9038 -15.9029 -14.7177 -14.7176  -7.3991  -7.3980  -4.9329  -4.9224
    -4.4485  -4.4390  -4.3641  -4.3382  -3.7570  -3.7475  -3.0434  -3.0242
    -2.1152  -2.1136   0.5826   0.5849   0.6192   0.6509   0.8414   0.8663
     1.1190   1.1631   3.7410   3.7420   3.8429   3.8429   4.3667   4.3669
     4.9272   4.9272   5.1388   5.1411   5.6394   5.6399   6.5080   6.5080
     7.3559   7.3561

          k =-0.0794 0.1375 0.0000 ( 14628 PWs)   bands (ev):

   -62.8001 -62.8001 -38.5521 -38.5511 -36.1163 -36.1155 -35.9905 -35.9882
   -15.8070 -15.8052 -14.6770 -14.6768  -7.2972  -7.2949  -5.1107  -5.0992
    -4.6337  -4.6333  -4.2729  -4.2485  -3.9371  -3.9298  -2.9776  -2.9533
    -2.1855  -2.1813   0.4429   0.4584   0.5281   0.5816   0.7458   0.7730
     1.2724   1.3205   3.8813   3.8826   3.9743   3.9744   4.5052   4.5056
     5.0590   5.0590   5.4548   5.4577   5.8285   5.8298   6.6322   6.6322
     7.4555   7.4561

          k =-0.0952 0.1650 0.0000 ( 14662 PWs)   bands (ev):

   -62.7973 -62.7973 -38.5601 -38.5584 -36.1216 -36.1204 -36.0070 -36.0034
   -15.6922 -15.6891 -14.6287 -14.6284  -7.1853  -7.1811  -5.2963  -5.2851
    -4.8197  -4.8160  -4.1794  -4.1540  -4.1431  -4.1356  -2.9370  -2.9083
    -2.2830  -2.2739   0.3096   0.3138   0.4933   0.5446   0.6504   0.6794
     1.4444   1.4949   4.0434   4.0453   4.1331   4.1332   4.6711   4.6716
     5.2191   5.2191   5.7291   5.7316   6.1241   6.1269   6.7808   6.7808
     7.5545   7.5570

          k =-0.1111 0.1925 0.0000 ( 14684 PWs)   bands (ev):

   -62.7942 -62.7942 -38.5692 -38.5666 -36.1285 -36.1271 -36.0240 -36.0188
   -15.5615 -15.5566 -14.5737 -14.5732  -7.0734  -7.0662  -5.4743  -5.4650
    -4.9962  -4.9877  -4.3961  -4.3949  -4.0643  -4.0286  -2.9208  -2.8888
    -2.4052  -2.3879   0.1863   0.1972   0.4872   0.5246   0.5727   0.6102
     1.6253   1.6765   4.2273   4.2299   4.3181   4.3184   4.8647   4.8653
     5.4068   5.4068   5.9585   5.9606   6.5052   6.5076   6.9505   6.9505
     7.6073   7.6193

          k =-0.1270 0.2199 0.0000 ( 14718 PWs)   bands (ev):

   -62.7909 -62.7909 -38.5791 -38.5753 -36.1372 -36.1359 -36.0403 -36.0336
   -15.4173 -15.4102 -14.5129 -14.5122  -6.9758  -6.9642  -5.6265  -5.6215
    -5.1656  -5.1505  -4.6558  -4.6461  -3.9740  -3.9277  -2.9284  -2.8940
    -2.5413  -2.5118   0.0756   0.1050   0.4957   0.4979   0.5406   0.6035
     1.8056   1.8558   4.4325   4.4360   4.5279   4.5283   5.0864   5.0872
     5.6212   5.6213   6.1836   6.1856   6.8877   6.8922   7.1352   7.1353
     7.5775   7.6096

          k =-0.1429 0.2474 0.0000 ( 14712 PWs)   bands (ev):

   -62.7875 -62.7875 -38.5896 -38.5844 -36.1475 -36.1472 -36.0550 -36.0472
   -15.2626 -15.2526 -14.4475 -14.4466  -6.9112  -6.8942  -5.7337  -5.7326
    -5.3400  -5.3163  -4.9043  -4.8841  -3.9179  -3.8588  -2.9591  -2.9231
    -2.6706  -2.6247  -0.0148   0.0327   0.4832   0.4942   0.5812   0.6462
     1.9765   2.0238   4.6576   4.6625   4.7606   4.7612   5.3362   5.3372
     5.8612   5.8614   6.4213   6.4232   7.1149   7.1311   7.3192   7.3199
     7.6125   7.6632

          k =-0.1587 0.2749 0.0000 ( 14718 PWs)   bands (ev):

   -62.7840 -62.7840 -38.6004 -38.5936 -36.1608 -36.1591 -36.0675 -36.0595
   -15.1006 -15.0870 -14.3789 -14.3777  -6.8954  -6.8737  -5.7844  -5.7770
    -5.5412  -5.5117  -5.1037  -5.0759  -3.9206  -3.8492  -3.0114  -2.9755
    -2.7661  -2.7021  -0.0745  -0.0120   0.4968   0.5124   0.6547   0.7143
     2.1308   2.1730   4.9002   4.9070   5.0139   5.0148   5.6142   5.6156
     6.1254   6.1255   6.6736   6.6742   7.0541   7.0600   7.4552   7.4570
     7.8725   7.8828

          k =-0.1746 0.3024 0.0000 ( 14720 PWs)   bands (ev):

   -62.7806 -62.7806 -38.6112 -38.6026 -36.1760 -36.1713 -36.0780 -36.0704
   -14.9349 -14.9171 -14.3084 -14.3069  -6.9267  -6.9035  -5.7822  -5.7712
    -5.7709  -5.7426  -5.2301  -5.2021  -3.9955  -3.9178  -3.0830  -3.0503
    -2.8091  -2.7296  -0.0903  -0.0172   0.5322   0.5486   0.7448   0.7974
     2.2634   2.2981   5.1556   5.1654   5.2849   5.2861   5.9200   5.9218
     6.4114   6.4114   6.8121   6.8359   6.9718   6.9909   7.4934   7.4954
     8.0021   8.0061

          k =-0.1905 0.3299 0.0000 ( 14750 PWs)   bands (ev):

   -62.7773 -62.7773 -38.6217 -38.6111 -36.1918 -36.1831 -36.0869 -36.0805
   -14.7696 -14.7469 -14.2377 -14.2357  -6.9845  -6.9634  -6.0366  -6.0148
    -5.7248  -5.7106  -5.2972  -5.2718  -4.1340  -4.0572  -3.1727  -3.1448
    -2.8030  -2.7134  -0.0544   0.0235   0.5792   0.5914   0.8430   0.8865
     2.3730   2.3972   5.4139   5.4288   5.5702   5.5715   6.2517   6.2547
     6.6009   6.6249   6.7149   6.7152   7.2350   7.2459   7.5140   7.5148
     8.2100   8.2209

          k =-0.2063 0.3574 0.0000 ( 14738 PWs)   bands (ev):

   -62.7743 -62.7743 -38.6316 -38.6190 -36.2071 -36.1939 -36.0947 -36.0900
   -14.6092 -14.5810 -14.1684 -14.1660  -7.0445  -7.0282  -6.2933  -6.2754
    -5.6643  -5.6510  -5.3221  -5.2989  -4.3160  -4.2433  -3.2794  -3.2563
    -2.7629  -2.6670   0.0292   0.1021   0.6319   0.6329   0.9403   0.9725
     2.4628   2.4733   5.6473   5.6717   5.8653   5.8665   6.3705   6.4038
     6.6193   6.6220   7.0264   7.0273   7.4872   7.4880   7.5911   7.5917
     8.1912   8.2631

          k =-0.2222 0.3849 0.0000 ( 14746 PWs)   bands (ev):

   -62.7715 -62.7715 -38.6407 -38.6261 -36.2211 -36.2030 -36.1018 -36.0991
   -14.4580 -14.4240 -14.1023 -14.0994  -7.0881  -7.0784  -6.5363  -6.5215
    -5.6123  -5.6010  -5.3139  -5.2922  -4.5231  -4.4558  -3.4001  -3.3818
    -2.6979  -2.5973   0.1371   0.1874   0.6732   0.7048   1.0273   1.0458
     2.5336   2.5396   5.7637   5.7934   6.1638   6.1652   6.2532   6.3064
     6.9925   6.9945   7.3265   7.3282   7.5560   7.5949   7.7626   7.7641
     8.2063   8.2451

          k =-0.2381 0.4124 0.0000 ( 14746 PWs)   bands (ev):

   -62.7690 -62.7690 -38.6488 -38.6321 -36.2332 -36.2099 -36.1085 -36.1082
   -14.3207 -14.2806 -14.0411 -14.0378  -7.1033  -7.1013  -6.7573  -6.7449
    -5.5801  -5.5716  -5.2781  -5.2576  -4.7425  -4.6813  -3.5310  -3.5176
    -2.6104  -2.5052   0.2166   0.2282   0.7435   0.8231   1.0948   1.0976
     2.5883   2.6125   5.6765   5.6813   6.3138   6.3686   6.4605   6.4620
     7.2841   7.3101   7.5786   7.6022   7.6042   7.6060   8.0467   8.0495
     8.4672   8.4728

          k =-0.2540 0.4399 0.0000 ( 14744 PWs)   bands (ev):

   -62.7670 -62.7670 -38.6556 -38.6370 -36.2431 -36.2144 -36.1171 -36.1147
   -14.2011 -14.1550 -13.9866 -13.9829  -7.0885  -7.0822  -6.9504  -6.9398
    -5.5742  -5.5677  -5.2198  -5.2022  -4.9610  -4.9100  -3.6674  -3.6592
    -2.5026  -2.3919   0.1966   0.2129   0.8753   0.9956   1.1231   1.1376
     2.6461   2.6883   5.4979   5.5158   6.3224   6.3895   6.7442   6.7470
     7.3869   7.4114   7.8819   7.8822   7.9441   7.9457   8.4159   8.4188
     8.8037   8.8111

          k =-0.2698 0.4674 0.0000 ( 14766 PWs)   bands (ev):

   -62.7653 -62.7653 -38.6612 -38.6409 -36.2506 -36.2166 -36.1259 -36.1205
   -14.1025 -14.0509 -13.9404 -13.9365  -7.1116  -7.1026  -7.0354  -7.0202
    -5.6022  -5.5932  -5.2020  -5.1569  -5.1176  -5.0926  -3.8036  -3.8013
    -2.3808  -2.2633   0.1074   0.1309   1.0401   1.1224   1.1644   1.1947
     2.7107   2.7685   5.3334   5.3694   6.2008   6.2738   7.0088   7.0132
     7.5991   7.6015   8.1885   8.1906   8.4054   8.4074   8.8298   8.8329
     9.1586   9.1726

          k =-0.2857 0.4949 0.0000 ( 14764 PWs)   bands (ev):

   -62.7640 -62.7640 -38.6654 -38.6437 -36.2558 -36.2166 -36.1342 -36.1255
   -14.0268 -13.9706 -13.9038 -13.8998  -7.2376  -7.2296  -6.9417  -6.9183
    -5.6844  -5.6610  -5.3512  -5.3213  -5.0563  -5.0200  -3.9365  -3.9320
    -2.2570  -2.1311  -0.0107   0.0084   1.1037   1.1129   1.2623   1.3843
     2.7787   2.8483   5.2169   5.2694   6.0255   6.0915   7.2450   7.2510
     7.8753   7.8873   8.5223   8.5257   8.8972   8.9009   9.2460   9.2518
     9.5012   9.5147

          k =-0.3016 0.5224 0.0000 ( 14782 PWs)   bands (ev):

   -62.7631 -62.7631 -38.6683 -38.6455 -36.2590 -36.2151 -36.1415 -36.1297
   -13.9745 -13.9150 -13.8777 -13.8737  -7.3272  -7.3198  -6.8128  -6.7824
    -5.8325  -5.7895  -5.4446  -5.4427  -4.9747  -4.9339  -4.0543  -4.0420
    -2.1484  -2.0130  -0.1271  -0.1172   1.0762   1.1013   1.4005   1.5374
     2.8409   2.9184   5.1654   5.2357   5.8451   5.8964   7.4374   7.4447
     8.1549   8.1770   8.8535   8.8563   9.3887   9.3940   9.5113   9.5259
     9.7787   9.7845

          k =-0.3175 0.5499 0.0000 ( 14784 PWs)   bands (ev):

   -62.7626 -62.7626 -38.6699 -38.6464 -36.2604 -36.2130 -36.1469 -36.1324
   -13.9449 -13.8832 -13.8623 -13.8584  -7.3799  -7.3729  -6.6712  -6.6363
    -5.9969  -5.9437  -5.5041  -5.4910  -4.9129  -4.8660  -4.1383  -4.1184
    -2.0742  -1.9306  -0.2118  -0.2109   1.0518   1.0823   1.4925   1.6337
     2.8859   2.9679   5.1818   5.2758   5.6846   5.7130   7.5633   7.5712
     8.3697   8.3978   9.1018   9.1053   9.5964   9.6118   9.6962   9.7087
     9.7970   9.8017

          k =-0.3333 0.5774 0.0000 ( 14766 PWs)   bands (ev):

   -62.7625 -62.7625 -38.6704 -38.6467 -36.2608 -36.2119 -36.1490 -36.1334
   -13.9356 -13.8733 -13.8573 -13.8535  -7.3970  -7.3901  -6.5937  -6.5582
    -6.0806  -6.0232  -5.5258  -5.5078  -4.8899  -4.8399  -4.1690  -4.1455
    -2.0485  -1.9017  -0.2452  -0.2424   1.0414   1.0733   1.5232   1.6655
     2.9029   2.9863   5.2172   5.3364   5.6017   5.6050   7.6051   7.6132
     8.4504   8.4800   9.1797   9.1890   9.6625   9.6808   9.7159   9.7363
     9.7726   9.7745

          k =-0.3030 0.5774 0.0000 ( 14778 PWs)   bands (ev):

   -62.7626 -62.7626 -38.6700 -38.6465 -36.2606 -36.2132 -36.1469 -36.1324
   -13.9430 -13.8813 -13.8615 -13.8576  -7.3825  -7.3755  -6.6689  -6.6328
    -6.0106  -5.9611  -5.4929  -5.4825  -4.9090  -4.8616  -4.1442  -4.1238
    -2.0692  -1.9251  -0.2160  -0.2155   1.0535   1.0843   1.4980   1.6396
     2.8856   2.9678   5.1579   5.2490   5.7014   5.7327   7.5738   7.5817
     8.3838   8.4134   9.1279   9.1331   9.5158   9.5303   9.7061   9.7183
     9.8453   9.8481

          k =-0.2727 0.5774 0.0000 ( 14786 PWs)   bands (ev):

   -62.7629 -62.7629 -38.6689 -38.6460 -36.2605 -36.2169 -36.1408 -36.1293
   -13.9626 -13.9028 -13.8729 -13.8690  -7.3416  -7.3344  -6.8238  -6.7883
    -5.9090  -5.8843  -5.3708  -5.3548  -4.9554  -4.9129  -4.0857  -4.0716
    -2.1207  -1.9832  -0.1467  -0.1376   1.0938   1.1208   1.4312   1.5706
     2.8324   2.9111   5.0301   5.0962   5.9416   5.9979   7.4987   7.5064
     8.2191   8.2503   8.9908   8.9952   9.1924   9.1981   9.6126   9.6163
     9.9289   9.9413

          k =-0.2424 0.5774 0.0000 ( 14792 PWs)   bands (ev):

   -62.7635 -62.7635 -38.6671 -38.6454 -36.2608 -36.2225 -36.1318 -36.1240
   -13.9908 -13.9343 -13.8901 -13.8862  -7.2796  -7.2719  -6.9940  -6.9608
    -5.8688  -5.8664  -5.1525  -5.1058  -5.0115  -4.9689  -4.0166  -4.0092
    -2.1856  -2.0555  -0.0526  -0.0327   1.1669   1.1821   1.3424   1.4728
     2.7448   2.8179   4.8886   4.9402   6.2525   6.3239   7.4057   7.4127
     8.0019   8.0371   8.6693   8.6835   8.9458   8.9489   9.4069   9.4180
     9.7411   9.7577

          k =-0.2121 0.5774 0.0000 ( 14748 PWs)   bands (ev):

   -62.7641 -62.7641 -38.6650 -38.6448 -36.2615 -36.2288 -36.1212 -36.1169
   -14.0243 -13.9721 -13.9110 -13.9073  -7.2052  -7.1945  -7.1562  -7.1287
    -5.8826  -5.8745  -5.0651  -5.0463  -4.8379  -4.7955  -3.9527  -3.9513
    -2.2502  -2.1269   0.0485   0.0800   1.1866   1.2705   1.3286   1.3636
     2.6288   2.6943   4.7502   4.7919   6.5992   6.6821   7.3110   7.3172
     7.7587   7.8003   8.2199   8.2331   8.8022   8.8033   9.1202   9.1307
     9.4849   9.4970

          k =-0.1818 0.5774 0.0000 ( 14744 PWs)   bands (ev):

   -62.7648 -62.7648 -38.6625 -38.6444 -36.2625 -36.2354 -36.1102 -36.1086
   -14.0597 -14.0130 -13.9338 -13.9304  -7.3126  -7.2848  -7.1148  -7.1081
    -5.9120  -5.8999  -5.1073  -5.0875  -4.5164  -4.4595  -3.9060  -3.9025
    -2.3076  -2.1900   0.1428   0.1855   1.0823   1.2330   1.4253   1.4531
     2.4943   2.5501   4.6205   4.6547   6.9390   7.0304   7.2223   7.2275
     7.5188   7.5669   7.7560   7.7693   8.6792   8.6797   8.7967   8.8046
     9.2863   9.2944

          k =-0.1515 0.5774 0.0000 ( 14756 PWs)   bands (ev):

   -62.7655 -62.7655 -38.6600 -38.6442 -36.2637 -36.2418 -36.0998 -36.0995
   -14.0940 -14.0537 -13.9566 -13.9536  -7.4462  -7.4227  -7.0288  -7.0220
    -5.9455  -5.9326  -5.1343  -5.1176  -4.1827  -4.1176  -3.8758  -3.8683
    -2.3573  -2.2445   0.2199   0.2723   0.9746   1.1215   1.5959   1.6167
     2.3539   2.3977   4.5024   4.5306   7.0733   7.0953   7.1321   7.1328
     7.3113   7.3168   7.5239   7.5503   8.5172   8.5249   8.5736   8.5736
     9.1326   9.1389

          k =-0.1212 0.5774 0.0000 ( 14760 PWs)   bands (ev):

   -62.7661 -62.7661 -38.6574 -38.6444 -36.2647 -36.2477 -36.0913 -36.0900
   -14.1248 -14.0917 -13.9776 -13.9751  -7.5591  -7.5400  -6.9490  -6.9428
    -5.9782  -5.9664  -5.1452  -5.1320  -3.8939  -3.8742  -3.8126  -3.7711
    -2.4036  -2.2953   0.2734   0.3306   0.8862   1.0231   1.7869   1.7965
     2.2235   2.2505   4.3981   4.4210   6.8196   6.8253   6.8842   6.8864
     7.1090   7.1131   7.7375   7.7946   8.3725   8.3868   8.4826   8.4834
     9.0126   9.0186

          k =-0.0909 0.5774 0.0000 ( 14746 PWs)   bands (ev):

   -62.7667 -62.7667 -38.6548 -38.6448 -36.2653 -36.2529 -36.0837 -36.0820
   -14.1500 -14.1246 -13.9955 -13.9936  -7.6487  -7.6342  -6.8818  -6.8767
    -6.0066  -5.9970  -5.1422  -5.1326  -3.8683  -3.8640  -3.5330  -3.4634
    -2.4542  -2.3511   0.3017   0.3541   0.8301   0.9455   1.9524   1.9763
     2.1256   2.1377   4.3101   4.3279   6.4604   6.4661   6.6193   6.6339
     7.0517   7.0544   7.8122   7.8461   8.4105   8.4114   8.4750   8.5176
     8.9271   8.9333

          k =-0.0606 0.5774 0.0000 ( 14742 PWs)   bands (ev):

   -62.7671 -62.7671 -38.6524 -38.6457 -36.2653 -36.2572 -36.0776 -36.0762
   -14.1679 -14.1507 -14.0090 -14.0077  -7.7132  -7.7035  -6.8314  -6.8278
    -6.0281  -6.0215  -5.1309  -5.1247  -3.8745  -3.8698  -3.2610  -3.1882
    -2.5170  -2.4220   0.3105   0.3481   0.8084   0.8899   1.9621   2.0024
     2.1721   2.2056   4.2423   4.2546   6.1572   6.1631   6.4167   6.4301
     7.0150   7.0167   7.7651   7.7818   8.3587   8.3594   8.6874   8.7305
     8.9058   8.9099

          k =-0.0303 0.5774 0.0000 ( 14748 PWs)   bands (ev):

   -62.7673 -62.7673 -38.6503 -38.6469 -36.2646 -36.2606 -36.0736 -36.0728
   -14.1773 -14.1686 -14.0173 -14.0166  -7.7515  -7.7466  -6.8003  -6.7984
    -6.0411  -6.0377  -5.1189  -5.1159  -3.8815  -3.8787  -3.0392  -2.9754
    -2.5889  -2.5139   0.3112   0.3300   0.8108   0.8522   1.9207   1.9378
     2.2959   2.3102   4.1997   4.2060   5.9559   5.9595   6.2896   6.2972
     6.9936   6.9944   7.7193   7.7266   8.3273   8.3276   8.7554   8.7653
     8.9549   8.9641

          k = 0.0000 0.5774 0.0000 ( 14770 PWs)   bands (ev):

   -62.7674 -62.7674 -38.6484 -38.6484 -36.2631 -36.2631 -36.0720 -36.0720
   -14.1776 -14.1776 -14.0199 -14.0199  -7.7627  -7.7627  -6.7892  -6.7892
    -6.0444  -6.0444  -5.1131  -5.1131  -3.8835  -3.8835  -2.9089  -2.9089
    -2.6026  -2.6026   0.3159   0.3159   0.8266   0.8266   1.9095   1.9095
     2.3468   2.3468   4.1870   4.1870   5.8860   5.8860   6.2487   6.2487
     6.9867   6.9867   7.7048   7.7048   8.3169   8.3169   8.7579   8.7579
     8.9624   8.9624

          k = 0.0000 0.5453 0.0000 ( 14760 PWs)   bands (ev):

   -62.7677 -62.7677 -38.6475 -38.6475 -36.2613 -36.2613 -36.0718 -36.0718
   -14.1968 -14.1968 -14.0271 -14.0271  -7.7433  -7.7433  -6.7702  -6.7702
    -6.0347  -6.0347  -5.1039  -5.1039  -3.8767  -3.8767  -2.9198  -2.9198
    -2.6243  -2.6243   0.3107   0.3107   0.8049   0.8049   1.8973   1.8973
     2.3415   2.3415   4.2504   4.2504   5.8718   5.8718   6.2093   6.2093
     6.9675   6.9675   7.7008   7.7008   8.2464   8.2464   8.4118   8.4118
     8.8580   8.8580

          k = 0.0000 0.5132 0.0000 ( 14712 PWs)   bands (ev):

   -62.7686 -62.7686 -38.6446 -38.6446 -36.2558 -36.2558 -36.0713 -36.0713
   -14.2531 -14.2531 -14.0483 -14.0483  -7.6868  -7.6868  -6.7138  -6.7138
    -6.0073  -6.0073  -5.0765  -5.0765  -3.8563  -3.8563  -2.9527  -2.9527
    -2.6843  -2.6843   0.2965   0.2965   0.7453   0.7453   1.8600   1.8600
     2.3252   2.3252   4.4307   4.4307   5.8360   5.8360   6.1036   6.1036
     6.8966   6.8966   7.6203   7.6203   8.0151   8.0151   8.0757   8.0757
     8.5936   8.5936

          k = 0.0000 0.4811 0.0000 ( 14718 PWs)   bands (ev):

   -62.7701 -62.7701 -38.6400 -38.6400 -36.2470 -36.2470 -36.0705 -36.0705
   -14.3427 -14.3427 -14.0825 -14.0825  -7.5973  -7.5973  -6.6222  -6.6222
    -5.9680  -5.9680  -5.0311  -5.0311  -3.8219  -3.8219  -3.0075  -3.0075
    -2.7681  -2.7681   0.2781   0.2781   0.6602   0.6602   1.7959   1.7959
     2.2974   2.2974   4.7021   4.7021   5.7900   5.7900   5.9571   5.9571
     6.7620   6.7620   7.3520   7.3520   7.7061   7.7061   7.8331   7.8331
     8.4424   8.4424

          k = 0.0000 0.4491 0.0000 ( 14722 PWs)   bands (ev):

   -62.7721 -62.7721 -38.6338 -38.6338 -36.2352 -36.2352 -36.0692 -36.0692
   -14.4601 -14.4601 -14.1279 -14.1279  -7.4818  -7.4818  -6.4985  -6.4985
    -5.9255  -5.9255  -4.9682  -4.9682  -3.7728  -3.7728  -3.0832  -3.0832
    -2.8549  -2.8549   0.2616   0.2616   0.5627   0.5627   1.7035   1.7035
     2.2570   2.2570   5.0258   5.0258   5.7325   5.7325   5.7958   5.7958
     6.5952   6.5952   6.9863   6.9863   7.4388   7.4388   7.5326   7.5326
     8.3021   8.3022

          k = 0.0000 0.4170 0.0000 ( 14708 PWs)   bands (ev):

   -62.7745 -62.7745 -38.6262 -38.6262 -36.2208 -36.2208 -36.0672 -36.0672
   -14.5991 -14.5991 -14.1824 -14.1824  -7.3493  -7.3493  -6.3468  -6.3468
    -5.8897  -5.8897  -4.8886  -4.8886  -3.7090  -3.7090  -3.1778  -3.1778
    -2.9220  -2.9220   0.2530   0.2530   0.4641   0.4641   1.5836   1.5836
     2.2030   2.2030   5.3037   5.3037   5.6392   5.6392   5.6910   5.6910
     6.4626   6.4626   6.6163   6.6163   7.1964   7.1964   7.2210   7.2210
     8.0982   8.0982

          k = 0.0000 0.3849 0.0000 ( 14712 PWs)   bands (ev):

   -62.7774 -62.7774 -38.6175 -38.6175 -36.2045 -36.2045 -36.0643 -36.0643
   -14.7532 -14.7532 -14.2436 -14.2436  -7.2118  -7.2118  -6.1722  -6.1722
    -5.8670  -5.8670  -4.7930  -4.7930  -3.6310  -3.6310  -3.2892  -3.2892
    -2.9476  -2.9476   0.2547   0.2547   0.3752   0.3752   1.4405   1.4405
     2.1342   2.1342   5.2634   5.2634   5.4749   5.4749   5.8846   5.8846
     6.2667   6.2667   6.4036   6.4036   6.9393   6.9393   7.0005   7.0005
     7.8782   7.8782

          k = 0.0000 0.3528 0.0000 ( 14696 PWs)   bands (ev):

   -62.7805 -62.7805 -38.6080 -38.6080 -36.1871 -36.1871 -36.0601 -36.0601
   -14.9159 -14.9159 -14.3091 -14.3091  -7.0862  -7.0862  -5.9808  -5.9808
    -5.8520  -5.8520  -4.6829  -4.6829  -3.5447  -3.5447  -3.4107  -3.4107
    -2.9185  -2.9185   0.2486   0.2486   0.3247   0.3247   1.2812   1.2812
     2.0496   2.0496   5.0686   5.0686   5.2538   5.2538   5.9196   5.9196
     6.1876   6.1876   6.3203   6.3203   6.8060   6.8060   6.8524   6.8524
     7.6946   7.6946

          k = 0.0000 0.3208 0.0000 ( 14692 PWs)   bands (ev):

   -62.7838 -62.7838 -38.5981 -38.5981 -36.1699 -36.1699 -36.0540 -36.0540
   -15.0816 -15.0816 -14.3766 -14.3766  -6.9958  -6.9958  -5.8365  -5.8365
    -5.7659  -5.7659  -4.5599  -4.5599  -3.5711  -3.5711  -3.4204  -3.4204
    -2.8353  -2.8353   0.2068   0.2068   0.3487   0.3487   1.1157   1.1157
     1.9489   1.9489   4.8508   4.8508   5.0106   5.0106   5.6225   5.6225
     6.1141   6.1141   6.3207   6.3207   6.7810   6.7810   6.9003   6.9003
     7.5813   7.5813

          k = 0.0000 0.2887 0.0000 ( 14684 PWs)   bands (ev):

   -62.7873 -62.7873 -38.5879 -38.5879 -36.1540 -36.1540 -36.0456 -36.0456
   -15.2453 -15.2453 -14.4438 -14.4438  -6.9636  -6.9636  -5.7699  -5.7699
    -5.5553  -5.5553  -4.4260  -4.4260  -3.7111  -3.7111  -3.3175  -3.3175
    -2.7110  -2.7110   0.1766   0.1766   0.4066   0.4066   0.9558   0.9558
     1.8325   1.8325   4.6322   4.6322   4.7683   4.7683   5.3463   5.3463
     5.8700   5.8700   6.2483   6.2483   6.7848   6.7848   7.0504   7.0504
     7.5526   7.5526

          k = 0.0000 0.2566 0.0000 ( 14696 PWs)   bands (ev):

   -62.7907 -62.7907 -38.5780 -38.5780 -36.1405 -36.1405 -36.0344 -36.0344
   -15.4025 -15.4025 -14.5088 -14.5088  -6.9960  -6.9960  -5.6537  -5.6537
    -5.3367  -5.3367  -4.2843  -4.2843  -3.8561  -3.8561  -3.2135  -3.2135
    -2.5656  -2.5656   0.1792   0.1792   0.4825   0.4825   0.8143   0.8143
     1.7022   1.7022   4.4218   4.4218   4.5389   4.5389   5.0967   5.0967
     5.6341   5.6341   6.0886   6.0886   6.6840   6.6840   7.0731   7.0731
     7.5874   7.5874

          k = 0.0000 0.2245 0.0000 ( 14690 PWs)   bands (ev):

   -62.7940 -62.7940 -38.5685 -38.5685 -36.1299 -36.1299 -36.0207 -36.0207
   -15.5496 -15.5496 -14.5699 -14.5699  -7.0766  -7.0766  -5.4939  -5.4939
    -5.1161  -5.1161  -4.1393  -4.1393  -3.9954  -3.9954  -3.1240  -3.1240
    -2.4201  -2.4201   0.2234   0.2234   0.5692   0.5692   0.7052   0.7052
     1.5610   1.5610   4.2253   4.2253   4.3289   4.3289   4.8743   4.8743
     5.4190   5.4190   5.9039   5.9039   6.4433   6.4433   6.9437   6.9437
     7.6130   7.6130

          k = 0.0000 0.1925 0.0000 ( 14658 PWs)   bands (ev):

   -62.7971 -62.7971 -38.5598 -38.5598 -36.1220 -36.1220 -36.0055 -36.0054
   -15.6832 -15.6832 -14.6256 -14.6256  -7.1817  -7.1817  -5.3093  -5.3093
    -4.8959  -4.8959  -4.1330  -4.1330  -3.9858  -3.9858  -3.0628  -3.0628
    -2.2916  -2.2916   0.3118   0.3118   0.6240   0.6240   0.6772   0.6772
     1.4140   1.4140   4.0458   4.0458   4.1422   4.1422   4.6793   4.6793
     5.2290   5.2290   5.6999   5.6999   6.1288   6.1288   6.7851   6.7851
     7.5568   7.5568

          k = 0.0000 0.1604 0.0000 ( 14642 PWs)   bands (ev):

   -62.8000 -62.8000 -38.5520 -38.5520 -36.1164 -36.1164 -35.9899 -35.9899
   -15.8006 -15.8006 -14.6747 -14.6747  -7.2922  -7.2922  -5.1181  -5.1181
    -4.6778  -4.6778  -4.2489  -4.2489  -3.8448  -3.8448  -3.0415  -3.0415
    -2.1901  -2.1901   0.4392   0.4392   0.6108   0.6108   0.7669   0.7669
     1.2675   1.2675   3.8855   3.8855   3.9812   3.9812   4.5118   4.5118
     5.0663   5.0663   5.4492   5.4492   5.8431   5.8431   6.6378   6.6378
     7.4578   7.4578

          k = 0.0000 0.1283 0.0000 ( 14604 PWs)   bands (ev):

   -62.8024 -62.8024 -38.5453 -38.5453 -36.1124 -36.1124 -35.9753 -35.9753
   -15.8997 -15.8997 -14.7162 -14.7162  -7.3951  -7.3951  -4.9362  -4.9362
    -4.4658  -4.4658  -4.3462  -4.3462  -3.7131  -3.7131  -3.0664  -3.0664
    -2.1175  -2.1175   0.5842   0.5842   0.6454   0.6454   0.8568   0.8568
     1.1302   1.1302   3.7453   3.7453   3.8476   3.8476   4.3714   4.3714
     4.9320   4.9320   5.1465   5.1465   5.6470   5.6470   6.5122   6.5122
     7.3585   7.3585

          k = 0.0000 0.0962 0.0000 ( 14577 PWs)   bands (ev):

   -62.8044 -62.8044 -38.5400 -38.5400 -36.1097 -36.1097 -35.9629 -35.9629
   -15.9787 -15.9787 -14.7492 -14.7492  -7.4818  -7.4818  -4.7776  -4.7776
    -4.4335  -4.4335  -4.2491  -4.2491  -3.5996  -3.5996  -3.1358  -3.1358
    -2.0700  -2.0700   0.6746   0.6746   0.7706   0.7706   0.9319   0.9320
     1.0158   1.0158   3.6263   3.6263   3.7424   3.7424   4.2577   4.2577
     4.8268   4.8268   4.8533   4.8533   5.5178   5.5178   6.4125   6.4125
     7.2733   7.2733

          k = 0.0000 0.0642 0.0000 ( 14585 PWs)   bands (ev):

   -62.8058 -62.8058 -38.5361 -38.5361 -36.1079 -36.1079 -35.9535 -35.9535
   -16.0361 -16.0361 -14.7732 -14.7732  -7.5471  -7.5471  -4.6562  -4.6562
    -4.4881  -4.4881  -4.0517  -4.0517  -3.5127  -3.5127  -3.2394  -3.2394
    -2.0418  -2.0418   0.7384   0.7384   0.8881   0.8882   0.9364   0.9364
     1.0073   1.0073   3.5314   3.5314   3.6665   3.6665   4.1706   4.1706
     4.6221   4.6221   4.7515   4.7515   5.4318   5.4318   6.3404   6.3404
     7.2085   7.2085

          k = 0.0000 0.0321 0.0000 ( 14555 PWs)   bands (ev):

   -62.8067 -62.8067 -38.5337 -38.5337 -36.1069 -36.1069 -35.9475 -35.9475
   -16.0709 -16.0709 -14.7878 -14.7878  -7.5874  -7.5874  -4.5885  -4.5885
    -4.5121  -4.5121  -3.8787  -3.8787  -3.4664  -3.4664  -3.3498  -3.3498
    -2.0274  -2.0274   0.7755   0.7755   0.8620   0.8620   1.0208   1.0208
     1.0442   1.0442   3.4674   3.4674   3.6207   3.6207   4.1128   4.1128
     4.4795   4.4795   4.7061   4.7061   5.3815   5.3815   6.2968   6.2968
     7.1496   7.1496

          k = 0.0000 0.0000 0.0000 ( 14593 PWs)   bands (ev):

   -62.8070 -62.8070 -38.5329 -38.5329 -36.1066 -36.1066 -35.9456 -35.9456
   -16.0826 -16.0826 -14.7927 -14.7927  -7.6010  -7.6010  -4.5755  -4.5755
    -4.5098  -4.5098  -3.7918  -3.7918  -3.4758  -3.4758  -3.3908  -3.3908
    -2.0230  -2.0230   0.7791   0.7791   0.8581   0.8581   1.0564   1.0564
     1.0579   1.0579   3.4443   3.4443   3.6053   3.6053   4.0919   4.0919
     4.4322   4.4322   4.6909   4.6909   5.3648   5.3648   6.2823   6.2823
     7.0931   7.0931

     Writing all to output data dir ./tmp/MoS2_1L_pbe_vdW_wsoc.save/

     init_run     :      0.63s CPU      0.65s WALL (       1 calls)
     electrons    :    369.21s CPU    264.83s WALL (       1 calls)

     Called by init_run:
     wfcinit      :      0.00s CPU      0.00s WALL (       1 calls)
     wfcinit:atom :      0.11s CPU      0.17s WALL (      51 calls)
     wfcinit:wfcr :      8.40s CPU      6.63s WALL (      51 calls)
     potinit      :      0.03s CPU      0.03s WALL (       1 calls)
     hinit0       :      0.39s CPU      0.40s WALL (       1 calls)

     Called by electrons:
     c_bands      :    369.21s CPU    264.83s WALL (       1 calls)
     v_of_rho     :      0.02s CPU      0.02s WALL (       1 calls)
     v_h          :      0.00s CPU      0.00s WALL (       1 calls)
     v_xc         :      0.02s CPU      0.02s WALL (       1 calls)

     Called by c_bands:
     init_us_2    :      0.10s CPU      0.10s WALL (      51 calls)
     init_us_2:cp :      0.10s CPU      0.10s WALL (      51 calls)
     cegterg      :    359.08s CPU    256.25s WALL (     175 calls)

     Called by sum_band:

     Called by *egterg:
     cdiaghg      :     13.39s CPU     13.46s WALL (    3103 calls)
     cegterg:over :     62.69s CPU     34.22s WALL (    3052 calls)
     cegterg:upda :     38.26s CPU     19.69s WALL (    3052 calls)
     cegterg:last :     66.26s CPU     36.12s WALL (    1390 calls)
     h_psi        :    172.01s CPU    146.57s WALL (    3278 calls)
     g_psi        :      1.68s CPU      1.98s WALL (    3052 calls)

     Called by h_psi:
     h_psi:calbec :     38.52s CPU     22.20s WALL (    3278 calls)
     vloc_psi     :     95.17s CPU     98.75s WALL (    3278 calls)
     add_vuspsi   :     35.73s CPU     22.75s WALL (    3278 calls)

     General routines
     calbec       :     38.51s CPU     22.11s WALL (    3278 calls)
     fft          :      0.19s CPU      0.19s WALL (      14 calls)
     fftw         :     76.06s CPU     78.61s WALL (  280308 calls)
     davcio       :      0.00s CPU      0.37s WALL (     102 calls)

     Parallel routines

     PWSCF        :   6m10.92s CPU   4m27.36s WALL


   This run was terminated on:  10:33:52  18Apr2024            

=------------------------------------------------------------------------------=
   JOB DONE.
=------------------------------------------------------------------------------=
