
     Program PWSCF v.7.2 starts on 18Apr2024 at 10: 1:57 

     This program is part of the open-source Quantum ESPRESSO suite
     for quantum simulation of materials; please cite
         "P. Giannozzi et al., J. Phys.:Condens. Matter 21 395502 (2009);
         "P. Giannozzi et al., J. Phys.:Condens. Matter 29 465901 (2017);
         "P. Giannozzi et al., J. Chem. Phys. 152 154105 (2020);
          URL http://www.quantum-espresso.org", 
     in publications or presentations arising from this work. More details at
     http://www.quantum-espresso.org/quote

     Parallel version (MPI & OpenMP), running on       8 processor cores
     Number of MPI processes:                 8
     Threads/MPI process:                     1

     MPI processes distributed on     1 nodes
     0 MiB available memory on the printing compute node when the environment starts

     Waiting for input...
     Reading input from standard input
Warning: card &IONS ignored
Warning: card     ION_DYNAMICS='BFGS', ignored
Warning: card     UPSCALE=10 ignored
Warning: card / ignored

     Current dimensions of program PWSCF are:
     Max number of different atomic species (ntypx) = 10
     Max number of k-points (npk) =  40000
     Max angular momentum in pseudopotentials (lmaxx) =  4

     Atomic positions and unit cell read from directory:
     ./tmp/MoS2_1L_pbe_vdW_nsoc.save/
     Atomic positions from file used, from input discarded


     IMPORTANT: XC functional enforced from input :
     Exchange-correlation= VDW-DF2-B86R
                           (   1   4  26   0   2   0   0)
     Any further DFT definition will be discarded
     Please, verify this is what you really want


     R & G space division:  proc/nbgrp/npool/nimage =       8
     Subspace diagonalization in iterative solution of the eigenvalue problem:
     a serial algorithm will be used


     Parallelization info
     --------------------
     sticks:   dense  smooth     PW     G-vecs:    dense   smooth      PW
     Min          85      85     24                14691    14691    2318
     Max          86      86     25                14716    14716    2353
     Sum         685     685    199               117663   117663   18769

     Using Slab Decomposition



     bravais-lattice index     =            4
     lattice parameter (alat)  =       5.9892  a.u.
     unit-cell volume          =    1488.4254 (a.u.)^3
     number of atoms/cell      =            3
     number of atomic types    =            2
     number of electrons       =        26.00
     number of Kohn-Sham states=           60
     kinetic-energy cutoff     =      70.0000  Ry
     charge density cutoff     =     280.0000  Ry
     Exchange-correlation= VDW-DF2-B86R
                           (   1   4  26   0   2   0   0)

     celldm(1)=   5.989200  celldm(2)=   0.000000  celldm(3)=   8.000000
     celldm(4)=   0.000000  celldm(5)=   0.000000  celldm(6)=   0.000000

     crystal axes: (cart. coord. in units of alat)
               a(1) = (   1.000000   0.000000   0.000000 )  
               a(2) = (  -0.500000   0.866025   0.000000 )  
               a(3) = (   0.000000   0.000000   8.000000 )  

     reciprocal axes: (cart. coord. in units 2 pi/alat)
               b(1) = (  1.000000  0.577350 -0.000000 )  
               b(2) = (  0.000000  1.154701  0.000000 )  
               b(3) = (  0.000000 -0.000000  0.125000 )  


     PseudoPot. # 1 for S  read from file:
     ../../../Pseudo/PBE/S.upf
     MD5 check sum: b72b6a9ca752e39de1a6cc592280dae2
     Pseudo is Norm-conserving + core correction, Zval =  6.0
     Generated using ONCVPSP code by D. R. Hamann
     Using radial grid of 1148 points,  6 beta functions with: 
                l(1) =   0
                l(2) =   0
                l(3) =   1
                l(4) =   1
                l(5) =   2
                l(6) =   2

     PseudoPot. # 2 for Mo read from file:
     ../../../Pseudo/PBE/Mo.upf
     MD5 check sum: 7ca7a9feba7bf08d88d14bc7fbf60c1e
     Pseudo is Norm-conserving + core correction, Zval = 14.0
     Generated using ONCVPSP code by D. R. Hamann
     Using radial grid of 1640 points,  6 beta functions with: 
                l(1) =   0
                l(2) =   0
                l(3) =   1
                l(4) =   1
                l(5) =   2
                l(6) =   2

     atomic species   valence    mass     pseudopotential
        S              6.00    32.06500     S ( 1.00)
        Mo            14.00   183.84000     Mo( 1.00)

     12 Sym. Ops. (no inversion) found


                                    s                        frac. trans.

      isym =  1     identity                                     

 cryst.   s( 1) = (     1          0          0      )
                  (     0          1          0      )
                  (     0          0          1      )

 cart.    s( 1) = (  1.0000000  0.0000000  0.0000000 )
                  (  0.0000000  1.0000000  0.0000000 )
                  (  0.0000000  0.0000000  1.0000000 )


      isym =  2     180 deg rotation - cart. axis [0,1,0]        

 cryst.   s( 2) = (    -1          0          0      )
                  (     1          1          0      )
                  (     0          0         -1      )

 cart.    s( 2) = ( -1.0000000  0.0000000  0.0000000 )
                  (  0.0000000  1.0000000  0.0000000 )
                  (  0.0000000  0.0000000 -1.0000000 )


      isym =  3     120 deg rotation - cryst. axis [0,0,1]       

 cryst.   s( 3) = (     0          1          0      )
                  (    -1         -1          0      )
                  (     0          0          1      )

 cart.    s( 3) = ( -0.5000000 -0.8660254  0.0000000 )
                  (  0.8660254 -0.5000000  0.0000000 )
                  (  0.0000000  0.0000000  1.0000000 )


      isym =  4     120 deg rotation - cryst. axis [0,0,-1]      

 cryst.   s( 4) = (    -1         -1          0      )
                  (     1          0          0      )
                  (     0          0          1      )

 cart.    s( 4) = ( -0.5000000  0.8660254  0.0000000 )
                  ( -0.8660254 -0.5000000  0.0000000 )
                  (  0.0000000  0.0000000  1.0000000 )


      isym =  5     180 deg rotation - cryst. axis [1,-1,0]      

 cryst.   s( 5) = (     0         -1          0      )
                  (    -1          0          0      )
                  (     0          0         -1      )

 cart.    s( 5) = (  0.5000000 -0.8660254  0.0000000 )
                  ( -0.8660254 -0.5000000  0.0000000 )
                  (  0.0000000  0.0000000 -1.0000000 )


      isym =  6     180 deg rotation - cryst. axis [2,1,0]       

 cryst.   s( 6) = (     1          1          0      )
                  (     0         -1          0      )
                  (     0          0         -1      )

 cart.    s( 6) = (  0.5000000  0.8660254  0.0000000 )
                  (  0.8660254 -0.5000000  0.0000000 )
                  (  0.0000000  0.0000000 -1.0000000 )


      isym =  7     inv. 180 deg rotation - cart. axis [0,0,1]   

 cryst.   s( 7) = (     1          0          0      )
                  (     0          1          0      )
                  (     0          0         -1      )

 cart.    s( 7) = (  1.0000000  0.0000000  0.0000000 )
                  (  0.0000000  1.0000000  0.0000000 )
                  (  0.0000000  0.0000000 -1.0000000 )


      isym =  8     inv. 180 deg rotation - cart. axis [1,0,0]   

 cryst.   s( 8) = (    -1          0          0      )
                  (     1          1          0      )
                  (     0          0          1      )

 cart.    s( 8) = ( -1.0000000  0.0000000  0.0000000 )
                  (  0.0000000  1.0000000  0.0000000 )
                  (  0.0000000  0.0000000  1.0000000 )


      isym =  9     inv.  60 deg rotation - cryst. axis [0,0,1]  

 cryst.   s( 9) = (    -1         -1          0      )
                  (     1          0          0      )
                  (     0          0         -1      )

 cart.    s( 9) = ( -0.5000000  0.8660254  0.0000000 )
                  ( -0.8660254 -0.5000000  0.0000000 )
                  (  0.0000000  0.0000000 -1.0000000 )


      isym = 10     inv.  60 deg rotation - cryst. axis [0,0,-1] 

 cryst.   s(10) = (     0          1          0      )
                  (    -1         -1          0      )
                  (     0          0         -1      )

 cart.    s(10) = ( -0.5000000 -0.8660254  0.0000000 )
                  (  0.8660254 -0.5000000  0.0000000 )
                  (  0.0000000  0.0000000 -1.0000000 )


      isym = 11     inv. 180 deg rotation - cryst. axis [0,1,0]  

 cryst.   s(11) = (     1          1          0      )
                  (     0         -1          0      )
                  (     0          0          1      )

 cart.    s(11) = (  0.5000000  0.8660254  0.0000000 )
                  (  0.8660254 -0.5000000  0.0000000 )
                  (  0.0000000  0.0000000  1.0000000 )


      isym = 12     inv. 180 deg rotation - cryst. axis [1,1,0]  

 cryst.   s(12) = (     0         -1          0      )
                  (    -1          0          0      )
                  (     0          0          1      )

 cart.    s(12) = (  0.5000000 -0.8660254  0.0000000 )
                  ( -0.8660254 -0.5000000  0.0000000 )
                  (  0.0000000  0.0000000  1.0000000 )


     point group D_3h (-62m)
     there are  6 classes
     the character table:

       E     2C3   3C2   s_h   2S3   3s_v 
A'_1   1.00  1.00  1.00  1.00  1.00  1.00
A'_2   1.00  1.00 -1.00  1.00  1.00 -1.00
E'     2.00 -1.00  0.00  2.00 -1.00  0.00
A''1   1.00  1.00  1.00 -1.00 -1.00 -1.00
A''2   1.00  1.00 -1.00 -1.00 -1.00  1.00
E''    2.00 -1.00  0.00 -2.00  1.00  0.00

     the symmetry operations in each class and the name of the first element:

     E        1
          identity                                               
     2C3      3    4
          120 deg rotation - cryst. axis [0,0,1]                 
     3C2      2    6    5
          180 deg rotation - cart. axis [0,1,0]                  
     s_h      7
          inv. 180 deg rotation - cart. axis [0,0,1]             
     2S3      9   10
          inv.  60 deg rotation - cryst. axis [0,0,1]            
     3s_v     8   11   12
          inv. 180 deg rotation - cart. axis [1,0,0]             

   Cartesian axes

     site n.     atom                  positions (alat units)
         1           Mo  tau(   1) = (  -0.0000003   0.5773503   0.0000000  )
         2           S   tau(   2) = (   0.5000002   0.2886748   0.4951576  )
         3           S   tau(   3) = (   0.5000002   0.2886748  -0.4951576  )

   Crystallographic axes

     site n.     atom                  positions (cryst. coord.)
         1           Mo  tau(   1) = (  0.3333330  0.6666667  0.0000000  )
         2           S   tau(   2) = (  0.6666667  0.3333330  0.0618947  )
         3           S   tau(   3) = (  0.6666667  0.3333330 -0.0618947  )

     number of k points=    51  Marzari-Vanderbilt smearing, width (Ry)=  0.0050
                       cart. coord. in units 2pi/alat
        k(    1) = (   0.0000000   0.0000000   0.0000000), wk =   0.0392157
        k(    2) = (  -0.0158729   0.0274930   0.0000000), wk =   0.0392157
        k(    3) = (  -0.0317457   0.0549860   0.0000000), wk =   0.0392157
        k(    4) = (  -0.0476186   0.0824789   0.0000000), wk =   0.0392157
        k(    5) = (  -0.0634914   0.1099719   0.0000000), wk =   0.0392157
        k(    6) = (  -0.0793643   0.1374649   0.0000000), wk =   0.0392157
        k(    7) = (  -0.0952371   0.1649579   0.0000000), wk =   0.0392157
        k(    8) = (  -0.1111100   0.1924509   0.0000000), wk =   0.0392157
        k(    9) = (  -0.1269829   0.2199438   0.0000000), wk =   0.0392157
        k(   10) = (  -0.1428557   0.2474368   0.0000000), wk =   0.0392157
        k(   11) = (  -0.1587286   0.2749298   0.0000000), wk =   0.0392157
        k(   12) = (  -0.1746014   0.3024228   0.0000000), wk =   0.0392157
        k(   13) = (  -0.1904743   0.3299158   0.0000000), wk =   0.0392157
        k(   14) = (  -0.2063471   0.3574087   0.0000000), wk =   0.0392157
        k(   15) = (  -0.2222200   0.3849017   0.0000000), wk =   0.0392157
        k(   16) = (  -0.2380929   0.4123947   0.0000000), wk =   0.0392157
        k(   17) = (  -0.2539657   0.4398877   0.0000000), wk =   0.0392157
        k(   18) = (  -0.2698386   0.4673807   0.0000000), wk =   0.0392157
        k(   19) = (  -0.2857114   0.4948736   0.0000000), wk =   0.0392157
        k(   20) = (  -0.3015843   0.5223666   0.0000000), wk =   0.0392157
        k(   21) = (  -0.3174571   0.5498596   0.0000000), wk =   0.0392157
        k(   22) = (  -0.3333300   0.5773526   0.0000000), wk =   0.0392157
        k(   23) = (  -0.3030273   0.5773524   0.0000000), wk =   0.0392157
        k(   24) = (  -0.2727245   0.5773522   0.0000000), wk =   0.0392157
        k(   25) = (  -0.2424218   0.5773519   0.0000000), wk =   0.0392157
        k(   26) = (  -0.2121191   0.5773517   0.0000000), wk =   0.0392157
        k(   27) = (  -0.1818164   0.5773515   0.0000000), wk =   0.0392157
        k(   28) = (  -0.1515136   0.5773513   0.0000000), wk =   0.0392157
        k(   29) = (  -0.1212109   0.5773511   0.0000000), wk =   0.0392157
        k(   30) = (  -0.0909082   0.5773509   0.0000000), wk =   0.0392157
        k(   31) = (  -0.0606055   0.5773507   0.0000000), wk =   0.0392157
        k(   32) = (  -0.0303027   0.5773505   0.0000000), wk =   0.0392157
        k(   33) = (   0.0000000   0.5773503   0.0000000), wk =   0.0392157
        k(   34) = (   0.0000000   0.5452753   0.0000000), wk =   0.0392157
        k(   35) = (   0.0000000   0.5132002   0.0000000), wk =   0.0392157
        k(   36) = (   0.0000000   0.4811252   0.0000000), wk =   0.0392157
        k(   37) = (   0.0000000   0.4490502   0.0000000), wk =   0.0392157
        k(   38) = (   0.0000000   0.4169752   0.0000000), wk =   0.0392157
        k(   39) = (   0.0000000   0.3849002   0.0000000), wk =   0.0392157
        k(   40) = (   0.0000000   0.3528252   0.0000000), wk =   0.0392157
        k(   41) = (   0.0000000   0.3207501   0.0000000), wk =   0.0392157
        k(   42) = (   0.0000000   0.2886751   0.0000000), wk =   0.0392157
        k(   43) = (   0.0000000   0.2566001   0.0000000), wk =   0.0392157
        k(   44) = (   0.0000000   0.2245251   0.0000000), wk =   0.0392157
        k(   45) = (   0.0000000   0.1924501   0.0000000), wk =   0.0392157
        k(   46) = (   0.0000000   0.1603751   0.0000000), wk =   0.0392157
        k(   47) = (   0.0000000   0.1283001   0.0000000), wk =   0.0392157
        k(   48) = (   0.0000000   0.0962250   0.0000000), wk =   0.0392157
        k(   49) = (   0.0000000   0.0641500   0.0000000), wk =   0.0392157
        k(   50) = (   0.0000000   0.0320750   0.0000000), wk =   0.0392157
        k(   51) = (   0.0000000   0.0000000   0.0000000), wk =   0.0392157

                       cryst. coord.
        k(    1) = (   0.0000000   0.0000000   0.0000000), wk =   0.0392157
        k(    2) = (  -0.0158729   0.0317460   0.0000000), wk =   0.0392157
        k(    3) = (  -0.0317457   0.0634921   0.0000000), wk =   0.0392157
        k(    4) = (  -0.0476186   0.0952381   0.0000000), wk =   0.0392157
        k(    5) = (  -0.0634914   0.1269842   0.0000000), wk =   0.0392157
        k(    6) = (  -0.0793643   0.1587302   0.0000000), wk =   0.0392157
        k(    7) = (  -0.0952371   0.1904763   0.0000000), wk =   0.0392157
        k(    8) = (  -0.1111100   0.2222223   0.0000000), wk =   0.0392157
        k(    9) = (  -0.1269829   0.2539684   0.0000000), wk =   0.0392157
        k(   10) = (  -0.1428557   0.2857144   0.0000000), wk =   0.0392157
        k(   11) = (  -0.1587286   0.3174605   0.0000000), wk =   0.0392157
        k(   12) = (  -0.1746014   0.3492065   0.0000000), wk =   0.0392157
        k(   13) = (  -0.1904743   0.3809526   0.0000000), wk =   0.0392157
        k(   14) = (  -0.2063471   0.4126986   0.0000000), wk =   0.0392157
        k(   15) = (  -0.2222200   0.4444447   0.0000000), wk =   0.0392157
        k(   16) = (  -0.2380929   0.4761907   0.0000000), wk =   0.0392157
        k(   17) = (  -0.2539657   0.5079368   0.0000000), wk =   0.0392157
        k(   18) = (  -0.2698386   0.5396828   0.0000000), wk =   0.0392157
        k(   19) = (  -0.2857114   0.5714289   0.0000000), wk =   0.0392157
        k(   20) = (  -0.3015843   0.6031749   0.0000000), wk =   0.0392157
        k(   21) = (  -0.3174571   0.6349210   0.0000000), wk =   0.0392157
        k(   22) = (  -0.3333300   0.6666670   0.0000000), wk =   0.0392157
        k(   23) = (  -0.3030273   0.6515155   0.0000000), wk =   0.0392157
        k(   24) = (  -0.2727245   0.6363639   0.0000000), wk =   0.0392157
        k(   25) = (  -0.2424218   0.6212124   0.0000000), wk =   0.0392157
        k(   26) = (  -0.2121191   0.6060608   0.0000000), wk =   0.0392157
        k(   27) = (  -0.1818164   0.5909093   0.0000000), wk =   0.0392157
        k(   28) = (  -0.1515136   0.5757577   0.0000000), wk =   0.0392157
        k(   29) = (  -0.1212109   0.5606062   0.0000000), wk =   0.0392157
        k(   30) = (  -0.0909082   0.5454546   0.0000000), wk =   0.0392157
        k(   31) = (  -0.0606055   0.5303031   0.0000000), wk =   0.0392157
        k(   32) = (  -0.0303027   0.5151515   0.0000000), wk =   0.0392157
        k(   33) = (   0.0000000   0.5000000   0.0000000), wk =   0.0392157
        k(   34) = (   0.0000000   0.4722222   0.0000000), wk =   0.0392157
        k(   35) = (   0.0000000   0.4444444   0.0000000), wk =   0.0392157
        k(   36) = (   0.0000000   0.4166667   0.0000000), wk =   0.0392157
        k(   37) = (   0.0000000   0.3888889   0.0000000), wk =   0.0392157
        k(   38) = (   0.0000000   0.3611111   0.0000000), wk =   0.0392157
        k(   39) = (   0.0000000   0.3333333   0.0000000), wk =   0.0392157
        k(   40) = (   0.0000000   0.3055556   0.0000000), wk =   0.0392157
        k(   41) = (   0.0000000   0.2777778   0.0000000), wk =   0.0392157
        k(   42) = (   0.0000000   0.2500000   0.0000000), wk =   0.0392157
        k(   43) = (   0.0000000   0.2222222   0.0000000), wk =   0.0392157
        k(   44) = (   0.0000000   0.1944444   0.0000000), wk =   0.0392157
        k(   45) = (   0.0000000   0.1666667   0.0000000), wk =   0.0392157
        k(   46) = (   0.0000000   0.1388889   0.0000000), wk =   0.0392157
        k(   47) = (   0.0000000   0.1111111   0.0000000), wk =   0.0392157
        k(   48) = (   0.0000000   0.0833333   0.0000000), wk =   0.0392157
        k(   49) = (   0.0000000   0.0555556   0.0000000), wk =   0.0392157
        k(   50) = (   0.0000000   0.0277778   0.0000000), wk =   0.0392157
        k(   51) = (   0.0000000   0.0000000   0.0000000), wk =   0.0392157

     Dense  grid:   117663 G-vectors     FFT dimensions: (  32,  32, 256)

     Dynamical RAM for                 wfc:       1.68 MB

     Dynamical RAM for     wfc (w. buffer):       1.68 MB

     Dynamical RAM for           str. fact:       0.45 MB

     Dynamical RAM for           local pot:       0.00 MB

     Dynamical RAM for          nlocal pot:       1.52 MB

     Dynamical RAM for                qrad:       2.69 MB

     Dynamical RAM for          rho,v,vnew:       1.42 MB

     Dynamical RAM for           G-vectors:       0.95 MB

     Dynamical RAM for          h,s,v(r/c):       0.66 MB

     Dynamical RAM for          <psi|beta>:       0.05 MB

     Dynamical RAM for                 psi:       3.37 MB

     Dynamical RAM for                hpsi:       3.37 MB

     Dynamical RAM for      wfcinit/wfcrot:       3.45 MB

     Estimated static dynamical RAM per process >      10.63 MB

     Estimated max dynamical RAM per process >      18.08 MB

     Estimated total dynamical RAM >     144.65 MB

     The potential is recalculated from file :
     ./tmp/MoS2_1L_pbe_vdW_nsoc.save/charge-density



     %%%%%%%%%%%%%%%%%%%%%%%%%%%%%%%%%%%%%%%%%%%%%%%%%%%%%%%%%%%%%%%%%%%%%%%%
     %                                                                      %
     % You are using vdW-DF, which was implemented by the Thonhauser group. %
     % Please cite the following two papers that made this development      %
     % possible and the two reviews that describe the various versions:     %
     %                                                                      %
     %   T. Thonhauser et al., PRL 115, 136402 (2015).                      %
     %   T. Thonhauser et al., PRB 76, 125112 (2007).                       %
     %   K. Berland et al., Rep. Prog. Phys. 78, 066501 (2015).             %
     %   D.C. Langreth et al., J. Phys.: Condens. Matter 21, 084203 (2009). %
     %                                                                      %
     % If you are calculating stress with vdW-DF, please also cite:         %
     %                                                                      %
     %   R. Sabatini et al., J. Phys.: Condens. Matter 24, 424209 (2012).   %
     %                                                                      %
     %%%%%%%%%%%%%%%%%%%%%%%%%%%%%%%%%%%%%%%%%%%%%%%%%%%%%%%%%%%%%%%%%%%%%%%%

     %%%%%%%%%%%%%%%%%%%%%%%%%%%%%%%%%%%%%%%%%%%%%%%%%%%%%%%%%%%%%%%%%%%%%%%%
     %                                                                      %
     %  vdW-DF NEWS:                                                        %
     %                                                                      %
     %  * vdW-DF3 is now available. DOI: 10.1021/acs.jctc.0c00471           %
     %    use with input_dft = 'vdW-DF3-opt1' or 'vdW-DF3-opt2'             %
     %                                                                      %
     %  * Unscreened and range-separated hybrid vdW-DF-cx functionals       %
     %    DOI: 10.1063/1.4986522 and 10.1088/1361-648X/ac2ad2               %
     %    use with input_dft = 'vdW-DF-cx0'    and 'vdW-DF-ahcx'            %
     %  * Unscreened and range-separated hybrid vdW-DF2-b86r functionals    %
     %    DOI: 10.1063/1.4986522 and DOI: 10.1103/PhysRevX.12.041003        %
     %    use with input_dft = 'vdW-DF2-br0' and 'vdW-DF2-ahbr'             %
     %                                                                      %
     %%%%%%%%%%%%%%%%%%%%%%%%%%%%%%%%%%%%%%%%%%%%%%%%%%%%%%%%%%%%%%%%%%%%%%%%


     Carrying out vdW-DF run using the following parameters:
     Nqs    =  20  Npoints =  1024  r_max =  100.000
     q_mesh =  0.00001000  0.04494208  0.09755937  0.15916263
               0.23128650  0.31572767  0.41458969  0.53033537
               0.66584808  0.82450364  1.01025438  1.22772762
               1.48234092  1.78043706  2.12944203  2.53805004
               3.01644009  3.57652955  4.23227104  5.00000000


     -----------------------------------------------
     Non-local corr. energy    =       0.30304619 Ry
     -----------------------------------------------

     Starting wfcs are   18 randomized atomic wfcs +   42 random wfcs

     Band Structure Calculation
     Davidson diagonalization with overlap

     Computing kpt #:     1  of    51
     total cpu time spent up to now is       13.7 secs

     Computing kpt #:     2  of    51
     total cpu time spent up to now is       16.7 secs

     Computing kpt #:     3  of    51
     total cpu time spent up to now is       19.6 secs

     Computing kpt #:     4  of    51
     total cpu time spent up to now is       22.6 secs

     Computing kpt #:     5  of    51
     total cpu time spent up to now is       25.5 secs

     Computing kpt #:     6  of    51
     total cpu time spent up to now is       28.2 secs

     Computing kpt #:     7  of    51
     total cpu time spent up to now is       31.5 secs

     Computing kpt #:     8  of    51
     total cpu time spent up to now is       34.6 secs

     Computing kpt #:     9  of    51
     total cpu time spent up to now is       38.3 secs

     Computing kpt #:    10  of    51
     total cpu time spent up to now is       41.5 secs

     Computing kpt #:    11  of    51
     total cpu time spent up to now is       44.3 secs

     Computing kpt #:    12  of    51
     total cpu time spent up to now is       47.1 secs

     Computing kpt #:    13  of    51
     total cpu time spent up to now is       49.7 secs

     Computing kpt #:    14  of    51
     total cpu time spent up to now is       52.4 secs

     Computing kpt #:    15  of    51
     total cpu time spent up to now is       55.3 secs

     Computing kpt #:    16  of    51
     total cpu time spent up to now is       58.5 secs

     Computing kpt #:    17  of    51
     total cpu time spent up to now is       61.6 secs

     Computing kpt #:    18  of    51
     total cpu time spent up to now is       64.7 secs

     Computing kpt #:    19  of    51
     total cpu time spent up to now is       68.1 secs

     Computing kpt #:    20  of    51
     total cpu time spent up to now is       71.0 secs

     Computing kpt #:    21  of    51
     total cpu time spent up to now is       73.6 secs

     Computing kpt #:    22  of    51
     total cpu time spent up to now is       76.2 secs

     Computing kpt #:    23  of    51
     total cpu time spent up to now is       79.2 secs

     Computing kpt #:    24  of    51
     total cpu time spent up to now is       82.0 secs

     Computing kpt #:    25  of    51
     total cpu time spent up to now is       84.9 secs

     Computing kpt #:    26  of    51
     total cpu time spent up to now is       88.2 secs

     Computing kpt #:    27  of    51
     total cpu time spent up to now is       91.5 secs

     Computing kpt #:    28  of    51
     total cpu time spent up to now is       94.9 secs

     Computing kpt #:    29  of    51
     total cpu time spent up to now is       98.0 secs

     Computing kpt #:    30  of    51
     total cpu time spent up to now is      101.6 secs

     Computing kpt #:    31  of    51
     total cpu time spent up to now is      105.7 secs

     Computing kpt #:    32  of    51
     total cpu time spent up to now is      109.0 secs

     Computing kpt #:    33  of    51
     total cpu time spent up to now is      112.4 secs

     Computing kpt #:    34  of    51
     total cpu time spent up to now is      116.0 secs

     Computing kpt #:    35  of    51
     total cpu time spent up to now is      120.1 secs

     Computing kpt #:    36  of    51
     total cpu time spent up to now is      123.9 secs

     Computing kpt #:    37  of    51
     total cpu time spent up to now is      127.5 secs

     Computing kpt #:    38  of    51
     total cpu time spent up to now is      130.7 secs

     Computing kpt #:    39  of    51
     total cpu time spent up to now is      134.8 secs

     Computing kpt #:    40  of    51
     total cpu time spent up to now is      138.1 secs

     Computing kpt #:    41  of    51
     total cpu time spent up to now is      141.6 secs

     Computing kpt #:    42  of    51
     total cpu time spent up to now is      145.4 secs

     Computing kpt #:    43  of    51
     total cpu time spent up to now is      148.9 secs

     Computing kpt #:    44  of    51
     total cpu time spent up to now is      152.1 secs

     Computing kpt #:    45  of    51
     total cpu time spent up to now is      155.6 secs

     Computing kpt #:    46  of    51
     total cpu time spent up to now is      158.8 secs

     Computing kpt #:    47  of    51
     total cpu time spent up to now is      161.5 secs

     Computing kpt #:    48  of    51
     total cpu time spent up to now is      164.6 secs

     Computing kpt #:    49  of    51
     total cpu time spent up to now is      167.3 secs

     Computing kpt #:    50  of    51
     total cpu time spent up to now is      170.6 secs

     Computing kpt #:    51  of    51
     total cpu time spent up to now is      173.4 secs

     ethr =  3.85E-10,  avg # of iterations = 53.9

     total cpu time spent up to now is      173.4 secs

     End of band structure calculation

          k = 0.0000 0.0000 0.0000 ( 14593 PWs)   bands (ev):

   -62.9598 -37.1236 -36.8954 -36.8954 -16.2296 -14.9419  -7.7505  -4.7153
    -4.7153  -3.9771  -3.6012  -3.6012  -2.2249   0.6605   0.6606   0.8846
     0.8847   3.0823   3.2615   4.0820   4.3027   4.6302   5.2962   6.2095
     6.9849   7.0901   8.4282   8.6847   8.6847   9.2554  10.6548  10.6548
    10.7255  11.1642  12.3329  13.8594  13.8594  14.0720  14.1201  14.1201
    14.5552  14.9127  17.0063  17.5732  18.2882  18.9332  20.6195  20.6195
    21.8251  22.0251  22.0251  22.2451  22.6271  22.6982  22.6982  22.7869
    22.8389  22.8389  23.2896  23.4235

          k =-0.0159 0.0275 0.0000 ( 14560 PWs)   bands (ev):

   -62.9595 -37.1230 -36.8983 -36.8960 -16.2181 -14.9371  -7.7370  -4.7418
    -4.7032  -4.0594  -3.6205  -3.5347  -2.2286   0.6408   0.6814   0.8465
     0.8711   3.1060   3.2766   4.1047   4.3471   4.6451   5.3122   6.2238
     7.0399   7.1035   8.4414   8.6322   8.7210   9.2913  10.5537  10.6583
    10.7263  11.1788  12.3325  13.7612  13.8774  14.0773  14.1084  14.1617
    14.6236  14.9478  17.0387  17.6865  18.3048  18.9180  20.5254  20.6483
    21.3766  21.7657  21.8349  22.1000  22.3593  22.4549  22.5967  22.7597
    22.9996  23.1292  23.2062  23.2162

          k =-0.0317 0.0550 0.0000 ( 14584 PWs)   bands (ev):

   -62.9586 -37.1213 -36.9071 -36.8981 -16.1840 -14.9230  -7.6972  -4.8191
    -4.6673  -4.2269  -3.6791  -3.4137  -2.2409   0.5874   0.7417   0.7430
     0.8312   3.1718   3.3217   4.1639   4.4850   4.6897   5.3604   6.2666
     7.1430   7.1978   8.4804   8.5046   8.8265   9.3763  10.2941  10.6672
    10.7213  11.2193  12.3327  13.5248  13.9188  13.9451  14.0847  14.3537
    14.8526  15.0490  17.1360  17.9921  18.3555  18.8682  20.3146  20.5650
    20.6644  21.1134  21.2611  21.8613  22.1643  22.2529  22.3085  22.3542
    22.4476  22.5402  22.8205  22.8426

          k =-0.0476 0.0825 0.0000 ( 14580 PWs)   bands (ev):

   -62.9572 -37.1185 -36.9214 -36.9015 -16.1278 -14.8996  -7.6328  -4.9401
    -4.6088  -4.4180  -3.7783  -3.2975  -2.2654   0.5148   0.5933   0.7669
     0.8419   3.2689   3.3962   4.2495   4.7141   4.7640   5.4421   6.3376
     7.2065   7.4380   8.3448   8.5422   8.9895   9.4845   9.9563  10.6758
    10.6958  11.2832  12.3379  13.2391  13.7192  13.9771  14.0711  14.5211
    15.2066  15.2792  17.2960  18.3798  18.4738  18.7698  19.7720  20.0485
    20.2269  20.3798  21.0612  21.2359  21.3700  21.5494  21.6710  21.7890
    22.3450  22.4512  22.4904  22.5328

          k =-0.0635 0.1100 0.0000 ( 14614 PWs)   bands (ev):

   -62.9553 -37.1147 -36.9406 -36.9062 -16.0504 -14.8675  -7.5467  -5.0947
    -4.6138  -4.5296  -3.9188  -3.2015  -2.3072   0.4270   0.4408   0.6824
     0.9728   3.3898   3.4992   4.3607   4.8675   5.0138   5.5615   6.4361
     7.2904   7.7287   8.1802   8.6182   9.1873   9.6086   9.6114  10.6458
    10.6738  11.3713  12.3502  12.9726  13.4059  14.0492  14.0850  14.6691
    15.4115  15.8361  17.5009  18.5226  18.6013  18.8326  19.0316  19.4414
    19.7363  19.8284  20.4904  20.5262  20.8451  20.9380  20.9961  21.3464
    21.6174  21.7766  22.0811  22.3014

          k =-0.0794 0.1375 0.0000 ( 14628 PWs)   bands (ev):

   -62.9529 -37.1099 -36.9639 -36.9124 -15.9532 -14.8271  -7.4435  -5.2706
    -4.8059  -4.4333  -4.0994  -3.1299  -2.3720   0.2644   0.3810   0.5845
     1.1284   3.5311   3.6298   4.4989   5.0002   5.3467   5.7345   6.5609
     7.3871   8.0211   8.0302   8.6800   9.3399   9.3804   9.7445  10.6011
    10.6472  11.4863  12.3558  12.7776  13.0336  14.1287  14.1346  14.8288
    15.6572  16.4494  17.6557  18.2614  18.3843  18.5949  18.7223  18.7784
    19.4848  19.7075  19.7096  19.8163  20.0498  20.2420  20.6485  20.8449
    21.0354  21.3267  21.5922  21.6958

          k =-0.0952 0.1650 0.0000 ( 14662 PWs)   bands (ev):

   -62.9501 -37.1045 -36.9905 -36.9199 -15.8379 -14.7792  -7.3298  -5.4544
    -4.9893  -4.3254  -4.3154  -3.0837  -2.4630   0.1194   0.3461   0.4842
     1.3004   3.6922   3.7871   4.6652   5.1615   5.6493   6.0022   6.7103
     7.4758   7.9199   8.2114   8.6946   9.2656   9.5109   9.8728  10.5877
    10.6386  11.6337  12.2561  12.6860  12.7203  14.2079  14.2217  15.0126
    15.9398  17.0334  17.4659  17.6600  17.9196  17.9912  18.5092  18.8757
    18.9149  18.9329  19.2861  19.4057  19.4198  20.0385  20.2415  20.2870
    20.5973  20.7393  21.0177  21.6463

          k =-0.1111 0.1925 0.0000 ( 14684 PWs)   bands (ev):

   -62.9470 -37.0984 -37.0193 -36.9288 -15.7064 -14.7246  -7.2158  -5.6308
    -5.1619  -4.5577  -4.2149  -3.0626  -2.5781  -0.0030   0.3407   0.3960
     1.4797   3.8728   3.9695   4.8601   5.3509   5.8948   6.3663   6.8809
     7.5022   7.9041   8.1476   8.7894   9.3939   9.5319   9.9857  10.5067
    10.8064  11.8192  11.8990  12.6557  12.6969  14.2802  14.3457  15.2227
    16.2563  16.9206  16.9712  17.2341  17.3007  17.8153  18.1395  18.1797
    18.5488  18.6618  18.7919  19.0434  19.1896  19.3120  19.8753  19.8845
    20.2126  20.7172  20.8578  21.0127

          k =-0.1270 0.2199 0.0000 ( 14718 PWs)   bands (ev):

   -62.9437 -37.0919 -37.0492 -36.9391 -15.5612 -14.6643  -7.1157  -5.7818
    -5.3261  -4.8121  -4.1159  -3.0660  -2.7064  -0.1046   0.3355   0.3651
     1.6571   4.0726   4.1753   5.0839   5.5679   6.1266   6.7391   7.0661
     7.4573   7.9618   8.0043   8.9323   9.4762   9.6102  10.0970  10.4355
    10.9368  11.5764  12.0422  12.7090  12.7709  14.3468  14.5044  15.4499
    16.3875  16.4287  16.5434  16.6337  16.6694  17.4347  17.4625  17.8438
    17.9641  18.3637  18.4443  18.6137  19.1180  19.1850  19.4018  19.6952
    19.7179  20.3034  20.5056  20.9967

          k =-0.1429 0.2474 0.0000 ( 14712 PWs)   bands (ev):

   -62.9403 -37.0851 -37.0792 -36.9507 -15.4052 -14.5995  -7.0488  -5.8867
    -5.4936  -5.0548  -4.0498  -3.0930  -2.8274  -0.1855   0.3116   0.4163
     1.8239   4.2906   4.4025   5.3367   5.8113   6.3682   6.9527   7.2470
     7.5073   7.8040   8.1618   9.0482   9.4243   9.8480  10.1585  10.4085
    10.6781  11.7170  12.2890  12.8136  12.8362  14.4262  14.6919  15.6285
    15.7976  15.9390  15.9724  16.1761  16.7510  16.7743  16.9875  17.2056
    17.2973  17.8179  17.9521  18.5804  18.8246  18.8703  19.2638  19.4341
    19.7656  19.9829  20.2225  20.4278

          k =-0.1587 0.2749 0.0000 ( 14718 PWs)   bands (ev):

   -62.9368 -37.1081 -37.0782 -36.9636 -15.2415 -14.5314  -7.0318  -5.9290
    -5.6886  -5.2507  -4.0427  -3.1428  -2.9147  -0.2377   0.3213   0.4892
     1.9729   4.5248   4.6486   5.6183   6.0799   6.6188   6.8828   7.3617
     7.7710   7.7742   8.3402   9.1396   9.4267   9.9435  10.0659  10.4571
    10.5228  12.0376  12.5046  12.8430  12.9741  14.5344  14.8592  15.2816
    15.3535  15.3627  15.6262  16.0960  16.1218  16.1586  16.6200  16.6933
    17.1838  17.2964  17.4132  18.0288  18.2577  18.8757  19.0750  19.1844
    19.4602  19.8653  20.2616  20.3653

          k =-0.1746 0.3024 0.0000 ( 14720 PWs)   bands (ev):

   -62.9334 -37.1351 -37.0714 -36.9778 -15.0739 -14.4616  -7.0632  -5.9240
    -5.9115  -5.3772  -4.1115  -3.2142  -2.9506  -0.2487   0.3537   0.5772
     2.0991   4.7711   4.9109   5.9284   6.3713   6.6495   6.9292   7.3699
     7.9146   8.0527   8.5248   9.2332   9.4277   9.6207  10.2121  10.5866
    10.6206  12.3459  12.4577  12.9702  13.1703  14.5726  14.5973  14.8372
    14.8527  15.2579  15.4787  15.4846  15.5039  15.9985  16.0729  16.5803
    16.5826  16.7242  17.5414  17.6845  17.7772  18.2942  18.5946  19.3174
    19.3486  19.5050  19.9002  20.4249

          k =-0.1905 0.3299 0.0000 ( 14750 PWs)   bands (ev):

   -62.9301 -37.1591 -37.0649 -36.9932 -14.9065 -14.3914  -7.1223  -6.1813
    -5.8576  -5.4448  -4.2483  -3.3054  -2.9399  -0.2107   0.3963   0.6726
     2.2010   5.0216   5.1868   6.2643   6.4306   6.6802   7.2010   7.3757
     8.1380   8.1775   8.7081   9.2169   9.3563   9.7181  10.2869  10.6962
    10.8835  12.1689  12.6155  13.2075  13.2605  14.1262  14.2976  14.4775
    14.4962  14.8688  14.9449  15.2988  15.4759  15.5387  15.8736  16.0277
    16.1751  16.7553  17.1020  17.3139  17.6749  18.0238  18.2871  18.9310
    19.1879  19.3129  19.7411  19.9995

          k =-0.2063 0.3574 0.0000 ( 14738 PWs)   bands (ev):

   -62.9270 -37.1793 -37.0588 -37.0096 -14.7435 -14.3227  -7.1842  -6.4386
    -5.7943  -5.4692  -4.4305  -3.4141  -2.8975  -0.1287   0.4414   0.7661
     2.2816   5.2551   5.4731   6.2077   6.6331   6.9912   7.4360   7.4491
     8.0899   8.3867   8.8823   9.2426   9.5221   9.9097  10.3316  10.8509
    11.1919  11.8020  12.8010  13.1251  13.3406  13.6677  13.9790  14.1160
    14.2050  14.3163  14.6668  14.8717  15.0102  15.4268  15.7060  15.9313
    15.9689  16.5419  16.6698  17.1603  17.5382  17.5708  18.5642  18.5952
    18.8569  18.9606  19.6980  19.7550

          k =-0.2222 0.3849 0.0000 ( 14746 PWs)   bands (ev):

   -62.9242 -37.1952 -37.0533 -37.0270 -14.5897 -14.2571  -7.2304  -6.6821
    -5.7413  -5.4595  -4.6384  -3.5371  -2.8316  -0.0296   0.4953   0.8478
     2.3484   5.4085   5.7663   6.0689   7.0071   7.2653   7.4491   7.6409
     8.1350   8.6474   9.0484   9.4363   9.7198  10.0998  10.3722  11.0782
    11.4149  11.5169  12.5993  13.0127  13.1441  13.4307  13.6878  13.7172
    13.8020  13.9509  14.4522  14.5716  14.5943  14.9615  15.4596  15.8407
    16.1619  16.2407  16.5501  16.7188  17.1394  17.8190  18.4051  18.4207
    18.4782  19.0028  19.5145  19.6667

          k =-0.2381 0.4124 0.0000 ( 14746 PWs)   bands (ev):

   -62.9217 -37.2064 -37.0485 -37.0452 -14.4496 -14.1964  -7.2485  -6.9035
    -5.7099  -5.4213  -4.8591  -3.6706  -2.7436   0.0328   0.5882   0.9083
     2.4109   5.3861   6.0613   6.0832   7.1651   7.4911   7.5308   7.9631
     8.4175   8.9122   9.2050   9.6734   9.9038  10.2699  10.4379  11.0704
    11.3837  11.8019  12.2356  12.6419  12.8284  13.2100  13.2525  13.2652
    13.6980  13.7541  14.1447  14.2469  14.4007  14.5164  15.4344  15.5061
    15.7764  16.1710  16.6042  16.7083  16.8511  17.6957  18.0229  18.0590
    18.7629  18.8754  19.5017  19.6046

          k =-0.2540 0.4399 0.0000 ( 14744 PWs)   bands (ev):

   -62.9197 -37.2125 -37.0639 -37.0443 -14.3273 -14.1423  -7.2308  -7.0970
    -5.7055  -5.3593  -5.0823  -3.8101  -2.6349   0.0154   0.7426   0.9416
     2.4775   5.2524   6.1163   6.3519   7.1253   7.7209   7.9507   8.3559
     8.7630   9.1621   9.3529   9.9004  10.0059  10.4368  10.4907  10.8931
    11.7372  11.9030  11.9324  12.2494  12.6197  12.7439  12.8083  12.8350
    13.3933  13.7584  13.7657  13.9467  14.2212  14.4344  15.1960  15.3082
    15.4210  15.8396  16.5902  16.6359  17.1249  17.4210  17.6395  17.7253
    18.5041  19.1535  19.2262  19.5883

          k =-0.2698 0.4674 0.0000 ( 14766 PWs)   bands (ev):

   -62.9180 -37.2136 -37.0830 -37.0410 -14.2262 -14.0965  -7.2584  -7.1730
    -5.7341  -5.2941  -5.2795  -3.9499  -2.5112  -0.0702   0.9328   0.9477
     2.5505   5.1137   6.0207   6.6294   7.2718   7.9784   8.4227   8.7738
     9.1065   9.3599   9.4988   9.9802  10.0622  10.4603  10.6448  11.0318
    11.6259  11.8044  11.8263  12.1912  12.3095  12.3832  12.3890  12.6022
    13.1270  13.4056  13.4113  13.6022  14.3429  14.4412  14.9262  15.0639
    15.1606  15.5099  16.5026  16.6631  17.1794  17.2622  17.3069  17.4959
    18.1354  18.8804  19.3852  19.5672

          k =-0.2857 0.4949 0.0000 ( 14764 PWs)   bands (ev):

   -62.9167 -37.2099 -37.1020 -37.0385 -14.1485 -14.0601  -7.3849  -7.0749
    -5.8116  -5.4672  -5.1898  -4.0828  -2.3846  -0.1904   0.9329   1.1195
     2.6256   5.0153   5.8436   6.8808   7.5459   8.2537   8.9106   9.1486
     9.3990   9.5028   9.6223   9.8534  10.1783  10.6093  10.9162  11.1398
    11.4024  11.5411  11.6729  11.9178  11.9763  12.0174  12.4002  12.6221
    12.9207  13.0464  13.2285  13.2360  14.2002  14.5529  14.6378  14.9118
    15.0322  15.2630  16.3941  16.5682  16.9000  17.1736  17.1898  17.2356
    18.0365  18.6555  19.1962  19.5094

          k =-0.3016 0.5224 0.0000 ( 14782 PWs)   bands (ev):

   -62.9158 -37.2023 -37.1202 -37.0368 -14.0948 -14.0342  -7.4748  -6.9429
    -5.9512  -5.5732  -5.1021  -4.1979  -2.2724  -0.3112   0.9077   1.2715
     2.6930   4.9810   5.6481   7.0865   7.8499   8.5086   9.3204   9.3345
     9.5474   9.6162   9.7201   9.9799  10.3881  10.8943  10.9751  11.0892
    11.1846  11.4224  11.5838  11.5864  11.6639  11.7385  12.2415  12.6574
    12.7145  12.8450  13.0997  13.1716  14.0447  14.3473  14.3972  14.7211
    15.0699  15.3771  16.2790  16.3154  16.5673  16.8239  17.0401  17.4920
    17.9506  18.6731  18.9199  19.2252

          k =-0.3175 0.5499 0.0000 ( 14784 PWs)   bands (ev):

   -62.9153 -37.1925 -37.1361 -37.0358 -14.0643 -14.0189  -7.5277  -6.8005
    -6.1091  -5.6270  -5.0348  -4.2793  -2.1951  -0.4000   0.8843   1.3678
     2.7412   5.0198   5.4639   7.2202   8.0988   8.6820   9.3852   9.4046
     9.5008   9.7385  10.1259  10.3892  10.6409  10.7659  10.9190  10.9902
    11.1338  11.2973  11.3093  11.3460  11.5947  11.8003  12.1369  12.4272
    12.5141  12.5430  13.1886  13.5109  13.8322  14.1187  14.2124  14.4455
    15.3289  15.5500  16.0568  16.2457  16.2679  16.5427  16.9132  17.8064
    17.9162  18.6268  18.7496  18.9552

          k =-0.3333 0.5774 0.0000 ( 14766 PWs)   bands (ev):

   -62.9152 -37.1867 -37.1438 -37.0355 -14.0548 -14.0139  -7.5449  -6.7243
    -6.1890  -5.6463  -5.0093  -4.3087  -2.1683  -0.4322   0.8741   1.3996
     2.7592   5.0788   5.3566   7.2641   8.1964   8.7396   9.3629   9.3911
     9.5529   9.7849  10.5066  10.5351  10.6842  10.7120  10.9615  10.9709
    10.9825  11.1438  11.1730  11.1835  11.6452  12.0234  12.1795  12.2238
    12.2712  12.4591  13.2858  13.7113  13.7577  14.0323  14.1107  14.2509
    15.5572  15.5905  16.0007  16.0108  16.2737  16.4451  16.8651  17.7378
    18.2848  18.3863  18.7647  18.7834

          k =-0.3030 0.5774 0.0000 ( 14778 PWs)   bands (ev):

   -62.9153 -37.1928 -37.1361 -37.0357 -14.0624 -14.0181  -7.5302  -6.7976
    -6.1243  -5.6174  -5.0306  -4.2851  -2.1899  -0.4044   0.8861   1.3736
     2.7411   4.9932   5.4835   7.2320   8.1184   8.6951   9.3020   9.3586
     9.5764   9.7619  10.3253  10.4546  10.4947  10.7606  10.8010  10.9212
    11.0929  11.1472  11.3740  11.5206  11.6464  11.9893  12.0472  12.0689
    12.5924  12.7101  13.1952  13.6658  13.7208  13.8906  14.2917  14.5188
    15.4274  15.5809  15.7955  16.2307  16.4149  16.5279  16.8875  17.8029
    18.0703  18.3370  18.7817  19.0855

          k =-0.2727 0.5774 0.0000 ( 14786 PWs)   bands (ev):

   -62.9156 -37.2055 -37.1191 -37.0364 -14.0828 -14.0295  -7.4891  -6.9512
    -6.0356  -5.4936  -5.0816  -4.2291  -2.2434  -0.3314   0.9265   1.3040
     2.6854   4.8417   5.7501   7.1557   7.9356   8.5879   8.9764   9.2728
     9.7184   9.7382  10.0570  10.2091  10.3316  10.5060  10.6117  11.0389
    11.1817  11.2318  11.5063  11.7597  11.8162  12.0328  12.1024  12.2272
    12.7868  13.2038  13.2383  13.5446  13.6998  13.7130  14.7005  14.9171
    15.2755  15.5682  15.6331  16.1495  16.7074  16.9503  16.9715  17.8439
    17.9196  18.1450  18.8946  19.5134

          k =-0.2424 0.5774 0.0000 ( 14792 PWs)   bands (ev):

   -62.9162 -37.2195 -37.0987 -37.0375 -14.1126 -14.0466  -7.4263  -7.1219
    -6.0064  -5.2585  -5.1430  -4.1630  -2.3100  -0.2326   1.0004   1.2048
     2.5940   4.6870   6.0794   7.0617   7.7062   8.4141   8.6024   9.0890
     9.5764   9.8241   9.8429   9.9919  10.2069  10.2893  10.4771  10.9315
    11.0396  11.5262  11.6102  11.7253  11.9086  12.1528  12.5307  12.7433
    12.8965  13.3946  13.4046  13.5234  13.8697  13.8986  14.9095  15.2144
    15.3760  15.5837  15.6226  16.0935  16.8275  17.2395  17.4353  17.7276
    17.9648  17.9911  19.0268  19.4113

          k =-0.2121 0.5774 0.0000 ( 14748 PWs)   bands (ev):

   -62.9168 -37.2330 -37.0772 -37.0387 -14.1482 -14.0675  -7.3480  -7.2882
    -6.0173  -5.2011  -4.9571  -4.1024  -2.3755  -0.1264   1.0893   1.1099
     2.4731   4.5402   6.4431   6.9665   7.4585   8.0325   8.4003   8.8297
     9.3346   9.6502   9.7493   9.8091  10.1105  10.1274  10.5170  10.8304
    10.9415  11.3516  11.6234  12.0100  12.0428  12.4961  12.6262  13.2270
    13.2332  13.4331  13.4817  13.5922  14.3082  14.5147  14.8517  15.2188
    15.4058  15.7316  16.0282  16.2569  16.9000  17.3995  17.5584  17.7383
    18.1109  18.2532  18.8885  19.6507

          k =-0.1818 0.5774 0.0000 ( 14744 PWs)   bands (ev):

   -62.9175 -37.2455 -37.0561 -37.0400 -14.1862 -14.0902  -7.4417  -7.2612
    -6.0450  -5.2482  -4.6264  -4.0558  -2.4326  -0.0271   0.9695   1.2538
     2.3328   4.4050   6.8018   6.8785   7.2202   7.5735   8.2760   8.5271
     9.1230   9.4909   9.6008   9.6489   9.9735   9.9937  10.5015  10.7336
    11.0424  11.1967  11.5843  12.0733  12.1969  12.7170  12.9996  13.2509
    13.2727  13.5211  14.0642  14.1474  14.5998  15.0224  15.0808  15.1981
    15.4344  15.6641  16.6032  16.6356  17.0011  17.3018  17.5771  17.6895
    18.4196  18.7908  18.8463  19.7002

          k =-0.1515 0.5774 0.0000 ( 14756 PWs)   bands (ev):

   -62.9182 -37.2564 -37.0414 -37.0365 -14.2237 -14.1130  -7.5777  -7.1735
    -6.0787  -5.2801  -4.2875  -4.0266  -2.4811   0.0546   0.8565   1.4267
     2.1855   4.2833   6.8006   6.8493   7.1189   7.2741   8.1720   8.2542
     8.9624   9.3491   9.4632   9.5092   9.8438   9.8726  10.4001  10.6391
    11.0588  11.1366  11.7117  12.1257  12.1353  12.8910  13.1649  13.2688
    13.4569  13.9616  14.3769  14.8132  14.8891  14.9734  15.3141  15.4746
    15.7584  15.9399  16.6953  16.9468  17.3895  17.4269  17.5374  17.6341
    18.6124  19.0855  19.1087  19.5707

          k =-0.1212 0.5774 0.0000 ( 14760 PWs)   bands (ev):

   -62.9188 -37.2657 -37.0426 -37.0191 -14.2581 -14.1341  -7.6929  -7.0924
    -6.1124  -5.2956  -4.0142  -3.9562  -2.5255   0.1110   0.7610   1.6169
     2.0454   4.1764   6.6041   6.6718   6.7549   7.5290   8.0851   8.1224
     8.8427   9.2306   9.3483   9.3927   9.7337   9.7624  10.2979  10.5511
    10.9338  11.1171  11.8788  12.1512  12.1945  12.7576  13.2006  13.5933
    13.6638  14.4206  14.5218  14.9177  15.1477  15.3540  15.5754  15.6724
    16.3176  16.5664  16.6749  16.9972  17.2709  17.3951  18.0593  18.1015
    18.7434  18.8776  19.3220  19.3788

          k =-0.0909 0.5774 0.0000 ( 14746 PWs)   bands (ev):

   -62.9194 -37.2730 -37.0437 -37.0048 -14.2872 -14.1521  -7.7850  -7.0241
    -6.1424  -5.2970  -4.0152  -3.6468  -2.5743   0.1386   0.6915   1.7937
     1.9391   4.0865   6.3022   6.3622   6.6932   7.5594   8.0161   8.2718
     8.7644   9.1384   9.2585   9.3009   9.6467   9.6625  10.2142  10.4746
    10.8206  11.0692  11.8626  12.1482  12.4914  12.6358  13.1749  13.7639
    13.9665  14.5914  14.6002  15.2396  15.2641  15.3939  15.9523  16.4561
    16.4756  16.7326  17.0695  17.1344  17.4021  17.4172  18.4002  18.6124
    18.7486  18.9087  19.1670  19.1855

          k =-0.0606 0.5774 0.0000 ( 14742 PWs)   bands (ev):

   -62.9198 -37.2784 -37.0446 -36.9940 -14.3091 -14.1659  -7.8520  -6.9732
    -6.1659  -5.2895  -4.0235  -3.3742  -2.6367   0.1424   0.6499   1.7969
     2.0139   4.0168   5.9948   6.1668   6.6563   7.4836   7.9659   8.4963
     8.7680   9.0756   9.1944   9.2341   9.5694   9.5839  10.1534  10.4130
    10.7229  11.0266  11.8177  12.1275  12.5367  12.7932  13.1710  13.9261
    14.0392  14.5428  14.9808  15.1407  15.3191  16.0300  16.0631  16.3653
    16.8830  16.9283  17.2451  17.3019  18.0083  18.0759  18.1525  18.6520
    18.8313  18.9295  19.0748  19.6709

          k =-0.0303 0.5774 0.0000 ( 14748 PWs)   bands (ev):

   -62.9200 -37.2816 -37.0451 -36.9874 -14.3228 -14.1744  -7.8927  -6.9420
    -6.1808  -5.2805  -4.0324  -3.1583  -2.7155   0.1354   0.6303   1.7421
     2.1319   3.9719   5.7902   6.0409   6.6343   7.4243   7.9354   8.5586
     8.9090   9.0580   9.1560   9.1910   9.4795   9.5461  10.1167  10.3703
    10.6527  10.9990  11.7868  12.1043  12.4722  12.9678  13.2231  14.0190
    14.0397  14.5525  15.0631  15.2855  15.4731  15.9711  16.2188  16.5446
    16.7417  16.9861  17.6896  17.8749  18.1290  18.3665  18.3925  18.8430
    18.8866  18.9717  19.1106  19.7056

          k = 0.0000 0.5774 0.0000 ( 14770 PWs)   bands (ev):

   -62.9201 -37.2827 -37.0453 -36.9852 -14.3275 -14.1773  -7.9064  -6.9315
    -6.1859  -5.2766  -4.0361  -3.0570  -2.7690   0.1313   0.6248   1.7219
     2.1767   3.9563   5.7178   5.9975   6.6270   7.4035   7.9252   8.5602
     8.9635   9.1047   9.1432   9.1678   9.4267   9.5334  10.1044  10.3540
    10.6266  10.9895  11.7761  12.0941  12.4501  13.0044  13.2732  14.0354
    14.0408  14.5805  15.0283  15.3137  15.7608  15.8135  16.1909  16.5719
    16.6456  17.3347  17.6307  17.9612  18.1351  18.4430  18.8550  19.0044
    19.0146  19.0698  19.1439  19.6540

          k = 0.0000 0.5453 0.0000 ( 14760 PWs)   bands (ev):

   -62.9204 -37.2799 -37.0459 -36.9845 -14.3466 -14.1845  -7.8873  -6.9128
    -6.1758  -5.2675  -4.0292  -3.0679  -2.7918   0.1264   0.6030   1.7094
     2.1714   4.0191   5.6957   5.9499   6.6085   7.4108   7.9146   8.3591
     8.7224   8.9201   9.1419   9.3378   9.6472   9.7452  10.0822  10.2247
    10.9420  10.9790  11.8229  11.9041  12.7206  12.9466  13.2337  13.9035
    14.1064  14.6528  14.9605  15.2804  15.7434  15.7800  16.1038  16.6421
    16.6563  17.3412  17.6552  17.8910  18.1934  18.4568  18.8200  19.0293
    19.0490  19.1591  19.1919  19.6682

          k = 0.0000 0.5132 0.0000 ( 14712 PWs)   bands (ev):

   -62.9213 -37.2714 -37.0476 -36.9825 -14.4026 -14.2054  -7.8315  -6.8573
    -6.1476  -5.2401  -4.0085  -3.1008  -2.8548   0.1134   0.5430   1.6712
     2.1553   4.1973   5.6372   5.8251   6.5470   7.3840   7.8816   7.9984
     8.4657   8.5830   9.2515   9.4346   9.6915   9.9207  10.3512  10.4314
    11.0495  11.2969  11.6246  12.0712  12.9330  13.0046  13.1186  13.6991
    14.1972  14.7188  14.7620  15.2201  15.6869  15.6956  15.9588  16.6982
    16.8351  17.3692  17.6490  17.7683  18.3803  18.4965  18.7969  19.0740
    19.1187  19.2137  19.4430  19.7106

          k = 0.0000 0.4811 0.0000 ( 14718 PWs)   bands (ev):

   -62.9228 -37.2575 -37.0505 -36.9792 -14.4919 -14.2392  -7.7432  -6.7670
    -6.1071  -5.1947  -3.9735  -3.1560  -2.9428   0.0969   0.4571   1.6056
     2.1277   4.4627   5.5546   5.6593   6.4466   7.2409   7.6285   7.7615
     8.3370   8.3575   9.2150   9.4269   9.5482  10.2392  10.6492  10.8865
    11.1149  11.3872  12.0170  12.0995  12.9377  13.0079  13.1470  13.6445
    14.1704  14.4501  14.7980  15.0794  15.6265  15.7118  15.8134  16.8804
    17.0714  17.4355  17.5292  17.7259  18.5582  18.6729  18.7689  19.1499
    19.2068  19.3279  19.7105  19.7804

          k = 0.0000 0.4491 0.0000 ( 14722 PWs)   bands (ev):

   -62.9248 -37.2386 -37.0545 -36.9748 -14.6091 -14.2840  -7.6291  -6.6451
    -6.0634  -5.1318  -3.9237  -3.2333  -3.0337   0.0833   0.3581   1.5114
     2.0877   4.7665   5.4465   5.4942   6.3443   6.9693   7.3264   7.4897
     8.2033   8.3111   9.0917   9.3312   9.6581  10.3723  10.8340  10.9983
    11.5689  11.6569  12.2937  12.3052  12.7064  12.9921  13.3520  13.5974
    14.0533  14.1737  14.7872  15.0670  15.5443  15.6587  15.9873  17.1454
    17.2865  17.3442  17.5511  17.8713  18.6389  18.7168  18.9992  19.2581
    19.3147  19.5097  19.8774  19.9265

          k = 0.0000 0.4170 0.0000 ( 14708 PWs)   bands (ev):

   -62.9272 -37.2152 -37.0593 -36.9693 -14.7478 -14.3379  -7.4980  -6.4957
    -6.0271  -5.0522  -3.8588  -3.3317  -3.1028   0.0790   0.2566   1.3899
     2.0341   4.9649   5.2981   5.4544   6.2898   6.6291   7.1028   7.1630
     7.9905   8.2869   9.0777   9.1784   9.9316  10.2360  10.8030  11.1196
    11.9238  12.1050  12.4429  12.4628  12.7347  13.0082  13.3258  13.6046
    13.8062  14.2281  14.7123  15.2447  15.4523  15.7467  16.3698  17.0253
    17.3917  17.5894  17.7185  18.2165  18.6709  18.7375  19.3074  19.3989
    19.4499  19.7125  20.0020  20.0701

          k = 0.0000 0.3849 0.0000 ( 14712 PWs)   bands (ev):

   -62.9301 -37.1880 -37.0649 -36.9629 -14.9015 -14.3983  -7.3617  -6.3234
    -6.0054  -4.9568  -3.7789  -3.4492  -3.1284   0.0893   0.1604   1.2453
     1.9656   4.8746   5.1038   5.6935   6.2828   6.2976   6.8589   6.9274
     7.7596   8.1590   9.0222   9.1690  10.1375  10.2289  10.6085  10.9597
    12.1660  12.2107  12.4486  12.8073  12.8888  13.1379  13.1479  13.5808
    13.9770  14.3567  15.0699  15.1955  15.3501  16.2683  16.5808  16.9794
    17.4119  17.9352  18.0249  18.4560  18.8548  18.8700  19.5682  19.5723
    19.6162  19.8002  20.1550  20.2527

          k = 0.0000 0.3528 0.0000 ( 14696 PWs)   bands (ev):

   -62.9332 -37.1578 -37.0711 -36.9558 -15.0639 -14.4631  -7.2365  -6.1332
    -5.9945  -4.8468  -3.6854  -3.5821  -3.0985   0.0770   0.1174   1.0854
     1.8814   4.6801   4.8783   5.9118   6.0269   6.2718   6.6882   6.7853
     7.5689   7.9475   8.8480   9.2544  10.1241  10.3772  10.5207  10.6535
    11.8919  12.1199  12.4213  12.6920  13.0874  13.2462  13.6098  13.8174
    14.3502  14.7669  15.1043  15.2355  15.7935  16.3721  16.8524  17.3791
    17.3905  18.1969  18.4946  18.5078  18.9932  19.3765  19.5723  19.7782
    19.8148  19.9564  20.1252  20.3373

          k = 0.0000 0.3208 0.0000 ( 14692 PWs)   bands (ev):

   -62.9366 -37.1255 -37.0777 -36.9483 -15.2294 -14.5297  -7.1454  -5.9749
    -5.9301  -4.7240  -3.7257  -3.5815  -3.0144   0.0136   0.1643   0.9201
     1.7810   4.4684   4.6411   5.6317   6.0735   6.1827   6.6899   6.7730
     7.4513   7.7199   8.5901   9.3332  10.0728  10.1681  10.4328  10.7454
    11.6339  11.8047  12.3071  12.3339  13.0222  13.8685  13.9336  14.5194
    14.6548  15.0576  15.1068  15.7951  15.9959  16.5693  17.0379  17.6840
    17.8508  18.4981  18.5726  18.9899  19.1554  19.4104  19.7556  19.9415
    20.0161  20.1174  20.2144  20.5498

          k = 0.0000 0.2887 0.0000 ( 14684 PWs)   bands (ev):

   -62.9400 -37.0920 -37.0845 -36.9405 -15.3929 -14.5962  -7.1117  -5.9180
    -5.7186  -4.5904  -3.8748  -3.4732  -2.8897  -0.0214   0.2289   0.7615
     1.6649   4.2579   4.4065   5.3512   5.8230   6.1637   6.6500   6.9452
     7.4169   7.5402   8.3063   9.3231   9.9410   9.9963  10.3666  10.7809
    11.4016  11.5197  12.1879  12.2555  12.7733  14.2584  14.5580  14.7104
    14.9636  15.3872  15.6830  15.9032  16.5339  16.8521  17.2422  18.2558
    18.2610  18.7664  18.8332  19.0381  19.3441  19.5016  19.6538  20.2086
    20.2345  20.2857  20.5694  20.6700

          k = 0.0000 0.2566 0.0000 ( 14696 PWs)   bands (ev):

   -62.9435 -37.0914 -37.0583 -36.9327 -15.5500 -14.6606  -7.1428  -5.8081
    -5.5023  -4.4486  -4.0239  -3.3692  -2.7448  -0.0196   0.3087   0.6221
     1.5349   4.0558   4.1837   5.0973   5.5823   6.0195   6.5446   6.9971
     7.4457   7.5489   8.0580   9.2081   9.8077   9.8623  10.3366  10.5711
    11.2012  11.3778  12.2642  12.3111  12.5534  14.1484  14.8079  15.1961
    15.4091  15.5610  16.2160  16.5318  16.6575  17.3735  17.8668  18.4109
    18.5255  19.0468  19.1954  19.2156  19.3242  19.5615  19.6109  20.4014
    20.4936  20.5865  20.8215  20.9227

          k = 0.0000 0.2245 0.0000 ( 14690 PWs)   bands (ev):

   -62.9468 -37.0980 -37.0255 -36.9251 -15.6969 -14.7211  -7.2230  -5.6530
    -5.2842  -4.3020  -4.1676  -3.2815  -2.6011   0.0261   0.3996   0.5148
     1.3940   3.8663   3.9787   4.8716   5.3639   5.8331   6.3097   6.8739
     7.4872   7.7623   7.9030   9.0332   9.5692   9.8369  10.2383  10.3346
    11.0358  11.3833  12.3005  12.4126  12.5808  14.0374  14.6439  15.2014
    16.0830  16.1185  16.2961  17.0862  17.4539  17.7924  18.1169  18.6120
    18.7633  19.0330  19.2720  19.4294  19.5768  19.8091  19.9984  20.6711
    20.8855  20.9179  20.9903  21.1058

          k = 0.0000 0.1925 0.0000 ( 14658 PWs)   bands (ev):

   -62.9499 -37.1041 -36.9945 -36.9180 -15.8304 -14.7762  -7.3285  -5.4719
    -5.0662  -4.3015  -4.1548  -3.2231  -2.4757   0.1185   0.4502   0.4969
     1.2469   3.6918   3.7954   4.6744   5.1717   5.6160   6.0087   6.7148
     7.4693   7.8904   7.9630   8.8444   9.3761   9.7912   9.8830  10.3998
    10.9057  11.4258  12.3325  12.4065  12.8958  13.9741  14.4775  15.0107
    15.9295  16.7628  16.9590  17.2503  17.9564  18.2990  18.3938  18.8774
    18.9186  19.2643  19.3225  19.9578  19.9658  20.0872  20.3344  20.9399
    21.0435  21.1807  21.2786  21.5263

          k = 0.0000 0.1604 0.0000 ( 14642 PWs)   bands (ev):

   -62.9527 -37.1097 -36.9664 -36.9115 -15.9478 -14.8249  -7.4397  -5.2833
    -4.8498  -4.4213  -4.0122  -3.2053  -2.3783   0.2529   0.4337   0.5948
     1.1000   3.5338   3.6364   4.5058   5.0076   5.3407   5.7474   6.5665
     7.3872   7.9534   7.9979   8.7110   9.3728   9.5479   9.7035  10.5127
    10.8088  11.4125  12.3452  12.5672  13.2116  13.9605  14.3159  14.8323
    15.6605  16.4369  17.5222  17.7726  18.1964  18.7155  18.8574  19.0803
    19.2562  19.3929  20.0707  20.3404  20.3754  20.3953  20.5092  21.1141
    21.4518  21.6611  21.8006  21.9060

          k = 0.0000 0.1283 0.0000 ( 14604 PWs)   bands (ev):

   -62.9552 -37.1145 -36.9419 -36.9060 -16.0468 -14.8660  -7.5432  -5.1030
    -4.6364  -4.5237  -3.8803  -3.2338  -2.3100   0.4156   0.4615   0.6872
     0.9612   3.3933   3.5037   4.3654   4.8724   5.0209   5.5682   6.4404
     7.2925   7.7256   8.1571   8.6238   9.2532   9.5951   9.5999  10.6198
    10.7411  11.3513  12.3426  12.8473  13.5045  13.9844  14.1673  14.6724
    15.4177  15.8345  17.4955  18.4733  18.5329  18.6662  19.0048  19.2933
    19.9095  20.2375  20.3928  20.6433  20.7318  20.9684  21.0235  21.7793
    21.8099  21.8246  22.1058  22.2169

          k = 0.0000 0.0962 0.0000 ( 14577 PWs)   bands (ev):

   -62.9572 -37.1184 -36.9220 -36.9014 -16.1257 -14.8988  -7.6305  -4.9449
    -4.6060  -4.4286  -3.7662  -3.3065  -2.2665   0.5200   0.5859   0.7679
     0.8392   3.2718   3.3989   4.2525   4.7214   4.7667   5.4453   6.3402
     7.2085   7.4444   8.3322   8.5445   9.0117   9.4831   9.9403  10.6901
    10.6973  11.2800  12.3359  13.1782  13.7569  14.0276  14.0401  14.5221
    15.2116  15.2817  17.3000  18.3845  18.4842  18.7617  19.5694  19.8561
    20.5967  20.7676  20.9140  21.0927  21.1093  21.5332  21.8683  21.8882
    22.2489  22.4737  22.5347  22.5494

          k = 0.0000 0.0642 0.0000 ( 14585 PWs)   bands (ev):

   -62.9586 -37.1213 -36.9074 -36.8981 -16.1831 -14.9226  -7.6962  -4.8213
    -4.6663  -4.2315  -3.6774  -3.4138  -2.2413   0.5875   0.7383   0.7433
     0.8308   3.1734   3.3229   4.1654   4.4888   4.6910   5.3618   6.2678
     7.1440   7.2019   8.4814   8.4995   8.8324   9.3777  10.2854  10.6716
    10.7206  11.2196  12.3325  13.5023  13.9423  13.9526  14.0732  14.3539
    14.8565  15.0517  17.1385  17.9998  18.3570  18.8667  20.2813  20.4617
    20.7246  21.1640  21.4688  21.7803  21.9088  22.1610  22.1960  22.3615
    22.4716  22.5104  23.0167  23.0231

          k = 0.0000 0.0321 0.0000 ( 14555 PWs)   bands (ev):

   -62.9595 -37.1230 -36.8984 -36.8960 -16.2179 -14.9370  -7.7368  -4.7424
    -4.7029  -4.0609  -3.6207  -3.5337  -2.2287   0.6405   0.6818   0.8457
     0.8709   3.1065   3.2769   4.1051   4.3480   4.6454   5.3125   6.2241
     7.0410   7.1038   8.4417   8.6311   8.7220   9.2920  10.5515  10.6587
    10.7263  11.1791  12.3324  13.7571  13.8806  14.0773  14.1074  14.1629
    14.6249  14.9486  17.0394  17.6888  18.3051  18.9177  20.5223  20.6505
    21.3497  21.8281  21.8287  22.0893  22.2909  22.4794  22.5099  22.8509
    23.0350  23.0611  23.0791  23.3694

          k = 0.0000 0.0000 0.0000 ( 14593 PWs)   bands (ev):

   -62.9598 -37.1236 -36.8954 -36.8954 -16.2296 -14.9419  -7.7505  -4.7153
    -4.7153  -3.9771  -3.6012  -3.6012  -2.2249   0.6605   0.6606   0.8846
     0.8847   3.0823   3.2615   4.0820   4.3027   4.6302   5.2962   6.2095
     6.9849   7.0901   8.4282   8.6847   8.6847   9.2554  10.6548  10.6548
    10.7255  11.1642  12.3329  13.8594  13.8594  14.0720  14.1201  14.1201
    14.5552  14.9127  17.0063  17.5732  18.2882  18.9332  20.6195  20.6195
    21.8251  22.0251  22.0251  22.2451  22.6271  22.6982  22.6982  22.7869
    22.8389  22.8389  23.2896  23.4235

     Writing all to output data dir ./tmp/MoS2_1L_pbe_vdW_nsoc.save/

     init_run     :     10.50s CPU     10.63s WALL (       1 calls)
     electrons    :    223.94s CPU    162.67s WALL (       1 calls)

     Called by init_run:
     wfcinit      :      0.00s CPU      0.00s WALL (       1 calls)
     wfcinit:atom :      0.04s CPU      0.05s WALL (      51 calls)
     wfcinit:wfcr :      4.27s CPU      3.47s WALL (      51 calls)
     potinit      :      9.92s CPU     10.03s WALL (       1 calls)
     hinit0       :      0.39s CPU      0.39s WALL (       1 calls)

     Called by electrons:
     c_bands      :    223.94s CPU    162.67s WALL (       1 calls)
     v_of_rho     :      9.91s CPU     10.03s WALL (       1 calls)
     v_h          :      0.00s CPU      0.00s WALL (       1 calls)
     v_xc         :      9.91s CPU     10.03s WALL (       1 calls)
     vdW_kernel   :      9.76s CPU      9.86s WALL (       1 calls)

     Called by c_bands:
     init_us_2    :      0.05s CPU      0.06s WALL (      51 calls)
     init_us_2:cp :      0.05s CPU      0.06s WALL (      51 calls)
     cegterg      :    219.13s CPU    158.51s WALL (     159 calls)

     Called by sum_band:

     Called by *egterg:
     cdiaghg      :     19.04s CPU     18.50s WALL (    2801 calls)
     cegterg:over :     44.15s CPU     23.68s WALL (    2750 calls)
     cegterg:upda :     25.83s CPU     13.11s WALL (    2750 calls)
     cegterg:last :     47.08s CPU     25.14s WALL (    1418 calls)
     h_psi        :     76.45s CPU     71.71s WALL (    2960 calls)
     g_psi        :      1.02s CPU      1.27s WALL (    2750 calls)

     Called by h_psi:
     h_psi:calbec :     13.01s CPU      8.22s WALL (    2960 calls)
     vloc_psi     :     50.50s CPU     52.65s WALL (    2960 calls)
     add_vuspsi   :     11.48s CPU      9.20s WALL (    2960 calls)

     General routines
     calbec       :     13.00s CPU      8.21s WALL (    2960 calls)
     fft          :      0.24s CPU      0.25s WALL (      61 calls)
     fftw         :     42.23s CPU     43.80s WALL (  168802 calls)
     davcio       :      0.00s CPU      0.24s WALL (     102 calls)

     Parallel routines

     PWSCF        :   3m55.10s CPU   2m54.45s WALL


   This run was terminated on:  10: 4:51  18Apr2024            

=------------------------------------------------------------------------------=
   JOB DONE.
=------------------------------------------------------------------------------=
