
     Program PWSCF v.7.2 starts on 18Apr2024 at 10:28:23 

     This program is part of the open-source Quantum ESPRESSO suite
     for quantum simulation of materials; please cite
         "P. Giannozzi et al., J. Phys.:Condens. Matter 21 395502 (2009);
         "P. Giannozzi et al., J. Phys.:Condens. Matter 29 465901 (2017);
         "P. Giannozzi et al., J. Chem. Phys. 152 154105 (2020);
          URL http://www.quantum-espresso.org", 
     in publications or presentations arising from this work. More details at
     http://www.quantum-espresso.org/quote

     Parallel version (MPI & OpenMP), running on       8 processor cores
     Number of MPI processes:                 8
     Threads/MPI process:                     1

     MPI processes distributed on     1 nodes
     0 MiB available memory on the printing compute node when the environment starts

     Waiting for input...
     Reading input from standard input

     Current dimensions of program PWSCF are:
     Max number of different atomic species (ntypx) = 10
     Max number of k-points (npk) =  40000
     Max angular momentum in pseudopotentials (lmaxx) =  4

     R & G space division:  proc/nbgrp/npool/nimage =       8
     Subspace diagonalization in iterative solution of the eigenvalue problem:
     a serial algorithm will be used


     Parallelization info
     --------------------
     sticks:   dense  smooth     PW     G-vecs:    dense   smooth      PW
     Min          85      85     24                14691    14691    2318
     Max          86      86     25                14716    14716    2353
     Sum         685     685    199               117663   117663   18769

     Using Slab Decomposition



     bravais-lattice index     =            4
     lattice parameter (alat)  =       5.9892  a.u.
     unit-cell volume          =    1488.4254 (a.u.)^3
     number of atoms/cell      =            3
     number of atomic types    =            2
     number of electrons       =        26.00
     number of Kohn-Sham states=           34
     kinetic-energy cutoff     =      70.0000  Ry
     charge density cutoff     =     280.0000  Ry
     scf convergence threshold =      1.0E-07
     mixing beta               =       0.7000
     number of iterations used =            8  plain     mixing
     Exchange-correlation= PBE
                           (   1   4   3   4   0   0   0)
     Non magnetic calculation with spin-orbit


     celldm(1)=   5.989200  celldm(2)=   0.000000  celldm(3)=   8.000000
     celldm(4)=   0.000000  celldm(5)=   0.000000  celldm(6)=   0.000000

     crystal axes: (cart. coord. in units of alat)
               a(1) = (   1.000000   0.000000   0.000000 )  
               a(2) = (  -0.500000   0.866025   0.000000 )  
               a(3) = (   0.000000   0.000000   8.000000 )  

     reciprocal axes: (cart. coord. in units 2 pi/alat)
               b(1) = (  1.000000  0.577350 -0.000000 )  
               b(2) = (  0.000000  1.154701  0.000000 )  
               b(3) = (  0.000000 -0.000000  0.125000 )  


     PseudoPot. # 1 for S  read from file:
     ../../../Pseudo/PBE/S_FR.upf
     MD5 check sum: a7319d53700e7dada26ada44d0048388
     Pseudo is Norm-conserving + core correction, Zval =  6.0
     Generated using ONCVPSP code by D. R. Hamann
     Using radial grid of 1146 points, 10 beta functions with: 
                l(1) =   0
                l(2) =   0
                l(3) =   1
                l(4) =   1
                l(5) =   1
                l(6) =   1
                l(7) =   2
                l(8) =   2
                l(9) =   2
               l(10) =   2

     PseudoPot. # 2 for Mo read from file:
     ../../../Pseudo/PBE/Mo_FR.upf
     MD5 check sum: 4e1c3579de4f68baf863f15f5be96aa1
     Pseudo is Norm-conserving + core correction, Zval = 14.0
     Generated using ONCVPSP code by D. R. Hamann
     Using radial grid of 1640 points, 10 beta functions with: 
                l(1) =   0
                l(2) =   0
                l(3) =   1
                l(4) =   1
                l(5) =   1
                l(6) =   1
                l(7) =   2
                l(8) =   2
                l(9) =   2
               l(10) =   2

     atomic species   valence    mass     pseudopotential
        S              6.00    32.06500     S ( 1.00)
        Mo            14.00   183.84000     Mo( 1.00)

     12 Sym. Ops. (no inversion) found


                                    s                        frac. trans.

      isym =  1     identity                                     

 cryst.   s( 1) = (     1          0          0      )
                  (     0          1          0      )
                  (     0          0          1      )

 cart.    s( 1) = (  1.0000000  0.0000000  0.0000000 )
                  (  0.0000000  1.0000000  0.0000000 )
                  (  0.0000000  0.0000000  1.0000000 )


      isym =  2     180 deg rotation - cart. axis [0,1,0]        

 cryst.   s( 2) = (    -1          0          0      )
                  (     1          1          0      )
                  (     0          0         -1      )

 cart.    s( 2) = ( -1.0000000  0.0000000  0.0000000 )
                  (  0.0000000  1.0000000  0.0000000 )
                  (  0.0000000  0.0000000 -1.0000000 )


      isym =  3     120 deg rotation - cryst. axis [0,0,1]       

 cryst.   s( 3) = (     0          1          0      )
                  (    -1         -1          0      )
                  (     0          0          1      )

 cart.    s( 3) = ( -0.5000000 -0.8660254  0.0000000 )
                  (  0.8660254 -0.5000000  0.0000000 )
                  (  0.0000000  0.0000000  1.0000000 )


      isym =  4     120 deg rotation - cryst. axis [0,0,-1]      

 cryst.   s( 4) = (    -1         -1          0      )
                  (     1          0          0      )
                  (     0          0          1      )

 cart.    s( 4) = ( -0.5000000  0.8660254  0.0000000 )
                  ( -0.8660254 -0.5000000  0.0000000 )
                  (  0.0000000  0.0000000  1.0000000 )


      isym =  5     180 deg rotation - cryst. axis [1,-1,0]      

 cryst.   s( 5) = (     0         -1          0      )
                  (    -1          0          0      )
                  (     0          0         -1      )

 cart.    s( 5) = (  0.5000000 -0.8660254  0.0000000 )
                  ( -0.8660254 -0.5000000  0.0000000 )
                  (  0.0000000  0.0000000 -1.0000000 )


      isym =  6     180 deg rotation - cryst. axis [2,1,0]       

 cryst.   s( 6) = (     1          1          0      )
                  (     0         -1          0      )
                  (     0          0         -1      )

 cart.    s( 6) = (  0.5000000  0.8660254  0.0000000 )
                  (  0.8660254 -0.5000000  0.0000000 )
                  (  0.0000000  0.0000000 -1.0000000 )


      isym =  7     inv. 180 deg rotation - cart. axis [0,0,1]   

 cryst.   s( 7) = (     1          0          0      )
                  (     0          1          0      )
                  (     0          0         -1      )

 cart.    s( 7) = (  1.0000000  0.0000000  0.0000000 )
                  (  0.0000000  1.0000000  0.0000000 )
                  (  0.0000000  0.0000000 -1.0000000 )


      isym =  8     inv. 180 deg rotation - cart. axis [1,0,0]   

 cryst.   s( 8) = (    -1          0          0      )
                  (     1          1          0      )
                  (     0          0          1      )

 cart.    s( 8) = ( -1.0000000  0.0000000  0.0000000 )
                  (  0.0000000  1.0000000  0.0000000 )
                  (  0.0000000  0.0000000  1.0000000 )


      isym =  9     inv.  60 deg rotation - cryst. axis [0,0,1]  

 cryst.   s( 9) = (    -1         -1          0      )
                  (     1          0          0      )
                  (     0          0         -1      )

 cart.    s( 9) = ( -0.5000000  0.8660254  0.0000000 )
                  ( -0.8660254 -0.5000000  0.0000000 )
                  (  0.0000000  0.0000000 -1.0000000 )


      isym = 10     inv.  60 deg rotation - cryst. axis [0,0,-1] 

 cryst.   s(10) = (     0          1          0      )
                  (    -1         -1          0      )
                  (     0          0         -1      )

 cart.    s(10) = ( -0.5000000 -0.8660254  0.0000000 )
                  (  0.8660254 -0.5000000  0.0000000 )
                  (  0.0000000  0.0000000 -1.0000000 )


      isym = 11     inv. 180 deg rotation - cryst. axis [0,1,0]  

 cryst.   s(11) = (     1          1          0      )
                  (     0         -1          0      )
                  (     0          0          1      )

 cart.    s(11) = (  0.5000000  0.8660254  0.0000000 )
                  (  0.8660254 -0.5000000  0.0000000 )
                  (  0.0000000  0.0000000  1.0000000 )


      isym = 12     inv. 180 deg rotation - cryst. axis [1,1,0]  

 cryst.   s(12) = (     0         -1          0      )
                  (    -1          0          0      )
                  (     0          0          1      )

 cart.    s(12) = (  0.5000000 -0.8660254  0.0000000 )
                  ( -0.8660254 -0.5000000  0.0000000 )
                  (  0.0000000  0.0000000  1.0000000 )


     double point group D_3h (-62m)
     there are  9 classes and  3 irreducible representations
     the character table:

       E     -E    2C3   -2C3   3C2'  s_h  2S3   -2S3   3s_v
                               -3C2' -s_h'             -3s_v
G_7    2.00 -2.00  1.00 -1.00  0.00  0.00  1.73 -1.73  0.00
G_8    2.00 -2.00  1.00 -1.00  0.00  0.00 -1.73  1.73  0.00
G_9    2.00 -2.00 -2.00  2.00  0.00  0.00  0.00  0.00  0.00

     the symmetry operations in each class and the name of the first element:

     E             1
          identity                                               
     -E           -1
          identity E                                             
     2C3           3    4
          120 deg rotation - cryst. axis [0,0,1]                 
     -2C3         -3   -4
          120 deg rotation - cryst. axis [0,0,1] E               
      3C2'-3C2'    2   -6    5   -2   -5    6
          180 deg rotation - cart. axis [0,1,0]                  
      s_h -s_h'    7   -7
          inv. 180 deg rotation - cart. axis [0,0,1]             
     2S3           9   10
          inv.  60 deg rotation - cryst. axis [0,0,1]            
     -2S3         -9  -10
          inv.  60 deg rotation - cryst. axis [0,0,1] E          
      3s_v-3s_v    8   -8  -11  -12   11   12
          inv. 180 deg rotation - cart. axis [1,0,0]             

   Cartesian axes

     site n.     atom                  positions (alat units)
         1           Mo  tau(   1) = (  -0.0000003   0.5773503   0.0000000  )
         2           S   tau(   2) = (   0.5000002   0.2886748   0.4951576  )
         3           S   tau(   3) = (   0.5000002   0.2886748  -0.4951576  )

   Crystallographic axes

     site n.     atom                  positions (cryst. coord.)
         1           Mo  tau(   1) = (  0.3333330  0.6666667  0.0000000  )
         2           S   tau(   2) = (  0.6666667  0.3333330  0.0618947  )
         3           S   tau(   3) = (  0.6666667  0.3333330 -0.0618947  )

     number of k points=    19  Marzari-Vanderbilt smearing, width (Ry)=  0.0050
                       cart. coord. in units 2pi/alat
        k(    1) = (   0.0000000   0.0000000   0.0000000), wk =   0.0069444
        k(    2) = (   0.0000000   0.0962250   0.0000000), wk =   0.0416667
        k(    3) = (   0.0000000   0.1924501   0.0000000), wk =   0.0416667
        k(    4) = (   0.0000000   0.2886751   0.0000000), wk =   0.0416667
        k(    5) = (   0.0000000   0.3849002   0.0000000), wk =   0.0416667
        k(    6) = (   0.0000000   0.4811252   0.0000000), wk =   0.0416667
        k(    7) = (   0.0000000  -0.5773503   0.0000000), wk =   0.0208333
        k(    8) = (   0.0833333   0.1443376   0.0000000), wk =   0.0416667
        k(    9) = (   0.0833333   0.2405626   0.0000000), wk =   0.0833333
        k(   10) = (   0.0833333   0.3367877   0.0000000), wk =   0.0833333
        k(   11) = (   0.0833333   0.4330127   0.0000000), wk =   0.0833333
        k(   12) = (   0.0833333   0.5292377   0.0000000), wk =   0.0833333
        k(   13) = (   0.1666667   0.2886751   0.0000000), wk =   0.0416667
        k(   14) = (   0.1666667   0.3849002   0.0000000), wk =   0.0833333
        k(   15) = (   0.1666667   0.4811252   0.0000000), wk =   0.0833333
        k(   16) = (   0.1666667   0.5773503   0.0000000), wk =   0.0416667
        k(   17) = (   0.2500000   0.4330127   0.0000000), wk =   0.0416667
        k(   18) = (   0.2500000   0.5292377   0.0000000), wk =   0.0833333
        k(   19) = (   0.3333333   0.5773503   0.0000000), wk =   0.0138889

                       cryst. coord.
        k(    1) = (   0.0000000   0.0000000   0.0000000), wk =   0.0069444
        k(    2) = (   0.0000000   0.0833333   0.0000000), wk =   0.0416667
        k(    3) = (   0.0000000   0.1666667   0.0000000), wk =   0.0416667
        k(    4) = (   0.0000000   0.2500000   0.0000000), wk =   0.0416667
        k(    5) = (   0.0000000   0.3333333   0.0000000), wk =   0.0416667
        k(    6) = (   0.0000000   0.4166667   0.0000000), wk =   0.0416667
        k(    7) = (   0.0000000  -0.5000000   0.0000000), wk =   0.0208333
        k(    8) = (   0.0833333   0.0833333   0.0000000), wk =   0.0416667
        k(    9) = (   0.0833333   0.1666667   0.0000000), wk =   0.0833333
        k(   10) = (   0.0833333   0.2500000   0.0000000), wk =   0.0833333
        k(   11) = (   0.0833333   0.3333333   0.0000000), wk =   0.0833333
        k(   12) = (   0.0833333   0.4166667   0.0000000), wk =   0.0833333
        k(   13) = (   0.1666667   0.1666667   0.0000000), wk =   0.0416667
        k(   14) = (   0.1666667   0.2500000   0.0000000), wk =   0.0833333
        k(   15) = (   0.1666667   0.3333333   0.0000000), wk =   0.0833333
        k(   16) = (   0.1666667   0.4166667   0.0000000), wk =   0.0416667
        k(   17) = (   0.2500000   0.2500000   0.0000000), wk =   0.0416667
        k(   18) = (   0.2500000   0.3333333   0.0000000), wk =   0.0833333
        k(   19) = (   0.3333333   0.3333333   0.0000000), wk =   0.0138889

     Dense  grid:   117663 G-vectors     FFT dimensions: (  32,  32, 256)

     Dynamical RAM for                 wfc:       1.91 MB

     Dynamical RAM for     wfc (w. buffer):      38.18 MB

     Dynamical RAM for           str. fact:       0.45 MB

     Dynamical RAM for           local pot:       0.00 MB

     Dynamical RAM for          nlocal pot:       2.86 MB

     Dynamical RAM for                qrad:       7.04 MB

     Dynamical RAM for          rho,v,vnew:       5.69 MB

     Dynamical RAM for               rhoin:       1.90 MB

     Dynamical RAM for            rho*nmix:      14.35 MB

     Dynamical RAM for           G-vectors:       0.95 MB

     Dynamical RAM for          h,s,v(r/c):       0.21 MB

     Dynamical RAM for          <psi|beta>:       0.11 MB

     Dynamical RAM for                 psi:       3.82 MB

     Dynamical RAM for                hpsi:       3.82 MB

     Dynamical RAM for      wfcinit/wfcrot:       3.06 MB

     Estimated static dynamical RAM per process >      59.75 MB

     Estimated max dynamical RAM per process >      82.05 MB

     Estimated total dynamical RAM >     656.41 MB

     Initial potential from superposition of free atoms

     starting charge      25.9985, renormalised to      26.0000

     negative rho (up, down):  6.419E-05 0.000E+00
     Starting wfcs are   36 randomized atomic wfcs

     total cpu time spent up to now is        2.4 secs

     Self-consistent Calculation

     iteration #  1     ecut=    70.00 Ry     beta= 0.70
     Davidson diagonalization with overlap

---- Real-time Memory Report at c_bands before calling an iterative solver
             0 MiB given to the printing process from OS
             0 MiB allocation reported by mallinfo(arena+hblkhd)
             0 MiB available memory on the node where the printing process lives
------------------
     ethr =  1.00E-02,  avg # of iterations =  3.1

     total cpu time spent up to now is        7.7 secs

     total energy              =    -184.62501447 Ry
     estimated scf accuracy    <       0.44441972 Ry

     iteration #  2     ecut=    70.00 Ry     beta= 0.70
     Davidson diagonalization with overlap

---- Real-time Memory Report at c_bands before calling an iterative solver
             0 MiB given to the printing process from OS
             0 MiB allocation reported by mallinfo(arena+hblkhd)
             0 MiB available memory on the node where the printing process lives
------------------
     ethr =  1.71E-03,  avg # of iterations =  3.2

     total cpu time spent up to now is       14.4 secs

     total energy              =    -184.05544041 Ry
     estimated scf accuracy    <       6.07132843 Ry

     iteration #  3     ecut=    70.00 Ry     beta= 0.70
     Davidson diagonalization with overlap

---- Real-time Memory Report at c_bands before calling an iterative solver
             0 MiB given to the printing process from OS
             0 MiB allocation reported by mallinfo(arena+hblkhd)
             0 MiB available memory on the node where the printing process lives
------------------
     ethr =  1.71E-03,  avg # of iterations =  2.8

     total cpu time spent up to now is       20.3 secs

     total energy              =    -184.88324175 Ry
     estimated scf accuracy    <       0.06275941 Ry

     iteration #  4     ecut=    70.00 Ry     beta= 0.70
     Davidson diagonalization with overlap

---- Real-time Memory Report at c_bands before calling an iterative solver
             0 MiB given to the printing process from OS
             0 MiB allocation reported by mallinfo(arena+hblkhd)
             0 MiB available memory on the node where the printing process lives
------------------
     ethr =  2.41E-04,  avg # of iterations =  1.8

     total cpu time spent up to now is       24.9 secs

     total energy              =    -184.88598911 Ry
     estimated scf accuracy    <       0.00955322 Ry

     iteration #  5     ecut=    70.00 Ry     beta= 0.70
     Davidson diagonalization with overlap

---- Real-time Memory Report at c_bands before calling an iterative solver
             0 MiB given to the printing process from OS
             0 MiB allocation reported by mallinfo(arena+hblkhd)
             0 MiB available memory on the node where the printing process lives
------------------
     ethr =  3.67E-05,  avg # of iterations =  2.1

     total cpu time spent up to now is       29.8 secs

     total energy              =    -184.88753705 Ry
     estimated scf accuracy    <       0.00008986 Ry

     iteration #  6     ecut=    70.00 Ry     beta= 0.70
     Davidson diagonalization with overlap

---- Real-time Memory Report at c_bands before calling an iterative solver
             0 MiB given to the printing process from OS
             0 MiB allocation reported by mallinfo(arena+hblkhd)
             0 MiB available memory on the node where the printing process lives
------------------
     ethr =  3.46E-07,  avg # of iterations =  4.8

     total cpu time spent up to now is       37.4 secs

     total energy              =    -184.88759184 Ry
     estimated scf accuracy    <       0.00000818 Ry

     iteration #  7     ecut=    70.00 Ry     beta= 0.70
     Davidson diagonalization with overlap

---- Real-time Memory Report at c_bands before calling an iterative solver
             0 MiB given to the printing process from OS
             0 MiB allocation reported by mallinfo(arena+hblkhd)
             0 MiB available memory on the node where the printing process lives
------------------
     ethr =  3.15E-08,  avg # of iterations =  2.6

     total cpu time spent up to now is       43.5 secs

     total energy              =    -184.88759390 Ry
     estimated scf accuracy    <       0.00000060 Ry

     iteration #  8     ecut=    70.00 Ry     beta= 0.70
     Davidson diagonalization with overlap

---- Real-time Memory Report at c_bands before calling an iterative solver
             0 MiB given to the printing process from OS
             0 MiB allocation reported by mallinfo(arena+hblkhd)
             0 MiB available memory on the node where the printing process lives
------------------
     ethr =  2.29E-09,  avg # of iterations =  2.6

     total cpu time spent up to now is       49.6 secs

     End of self-consistent calculation

          k = 0.0000 0.0000 0.0000 ( 14593 PWs)   bands (ev):

   -62.8104 -62.8104 -38.5361 -38.5361 -36.1097 -36.1097 -35.9488 -35.9488
   -16.0830 -16.0830 -14.7930 -14.7930  -7.6019  -7.6019  -4.5771  -4.5771
    -4.5114  -4.5114  -3.7920  -3.7920  -3.4772  -3.4772  -3.3922  -3.3922
    -2.0244  -2.0244   0.7780   0.7780   0.8570   0.8570   1.0554   1.0554
     1.0569   1.0569

     occupation numbers 
     1.0000   1.0000   1.0000   1.0000   1.0000   1.0000   1.0000   1.0000
     1.0000   1.0000   1.0000   1.0000   1.0000   1.0000   1.0000   1.0000
     1.0000   1.0000   1.0000   1.0000   1.0000   1.0000   1.0000   1.0000
     1.0000   1.0000   0.0000   0.0000   0.0000   0.0000   0.0000   0.0000
     0.0000   0.0000

          k = 0.0000 0.0962 0.0000 ( 14577 PWs)   bands (ev):

   -62.8078 -62.8078 -38.5432 -38.5432 -36.1128 -36.1128 -35.9661 -35.9661
   -15.9792 -15.9792 -14.7495 -14.7495  -7.4827  -7.4827  -4.7791  -4.7791
    -4.4351  -4.4351  -4.2499  -4.2499  -3.6009  -3.6009  -3.1365  -3.1365
    -2.0715  -2.0715   0.6734   0.6734   0.7695   0.7695   0.9309   0.9309
     1.0146   1.0146

     occupation numbers 
     1.0000   1.0000   1.0000   1.0000   1.0000   1.0000   1.0000   1.0000
     1.0000   1.0000   1.0000   1.0000   1.0000   1.0000   1.0000   1.0000
     1.0000   1.0000   1.0000   1.0000   1.0000   1.0000   1.0000   1.0000
     1.0000   1.0000   0.0000   0.0000   0.0000   0.0000   0.0000   0.0000
     0.0000   0.0000

          k = 0.0000 0.1925 0.0000 ( 14658 PWs)   bands (ev):

   -62.8005 -62.8005 -38.5630 -38.5630 -36.1251 -36.1251 -36.0086 -36.0086
   -15.6836 -15.6836 -14.6259 -14.6259  -7.1826  -7.1826  -5.3106  -5.3106
    -4.8968  -4.8968  -4.1345  -4.1345  -3.9871  -3.9871  -3.0631  -3.0631
    -2.2932  -2.2932   0.3106   0.3106   0.6225   0.6225   0.6760   0.6760
     1.4127   1.4127

     occupation numbers 
     1.0000   1.0000   1.0000   1.0000   1.0000   1.0000   1.0000   1.0000
     1.0000   1.0000   1.0000   1.0000   1.0000   1.0000   1.0000   1.0000
     1.0000   1.0000   1.0000   1.0000   1.0000   1.0000   1.0000   1.0000
     1.0000   1.0000   0.0000   0.0000   0.0000   0.0000   0.0000   0.0000
     0.0000   0.0000

          k = 0.0000 0.2887 0.0000 ( 14684 PWs)   bands (ev):

   -62.7907 -62.7907 -38.5912 -38.5912 -36.1571 -36.1571 -36.0488 -36.0488
   -15.2458 -15.2458 -14.4441 -14.4441  -6.9646  -6.9646  -5.7708  -5.7708
    -5.5562  -5.5562  -4.4273  -4.4273  -3.7124  -3.7124  -3.3178  -3.3178
    -2.7126  -2.7126   0.1752   0.1752   0.4052   0.4052   0.9543   0.9543
     1.8312   1.8312

     occupation numbers 
     1.0000   1.0000   1.0000   1.0000   1.0000   1.0000   1.0000   1.0000
     1.0000   1.0000   1.0000   1.0000   1.0000   1.0000   1.0000   1.0000
     1.0000   1.0000   1.0000   1.0000   1.0000   1.0000   1.0000   1.0000
     1.0000   1.0000   0.0000   0.0000   0.0000   0.0000   0.0000   0.0000
     0.0000   0.0000

          k = 0.0000 0.3849 0.0000 ( 14712 PWs)   bands (ev):

   -62.7808 -62.7808 -38.6207 -38.6207 -36.2076 -36.2076 -36.0675 -36.0675
   -14.7536 -14.7536 -14.2440 -14.2440  -7.2127  -7.2127  -6.1729  -6.1729
    -5.8677  -5.8677  -4.7943  -4.7943  -3.6313  -3.6313  -3.2902  -3.2902
    -2.9492  -2.9492   0.2528   0.2528   0.3735   0.3735   1.4390   1.4390
     2.1329   2.1329

     occupation numbers 
     1.0000   1.0000   1.0000   1.0000   1.0000   1.0000   1.0000   1.0000
     1.0000   1.0000   1.0000   1.0000   1.0000   1.0000   1.0000   1.0000
     1.0000   1.0000   1.0000   1.0000   1.0000   1.0000   1.0000   1.0000
     1.0000   1.0000   0.0000   0.0000   0.0000   0.0000   0.0000   0.0000
     0.0000   0.0000

          k = 0.0000 0.4811 0.0000 ( 14718 PWs)   bands (ev):

   -62.7735 -62.7735 -38.6432 -38.6432 -36.2502 -36.2502 -36.0736 -36.0736
   -14.3431 -14.3431 -14.0829 -14.0829  -7.5982  -7.5982  -6.6229  -6.6229
    -5.9688  -5.9688  -5.0323  -5.0323  -3.8223  -3.8223  -3.0082  -3.0082
    -2.7695  -2.7695   0.2757   0.2757   0.6581   0.6581   1.7945   1.7945
     2.2960   2.2960

     occupation numbers 
     1.0000   1.0000   1.0000   1.0000   1.0000   1.0000   1.0000   1.0000
     1.0000   1.0000   1.0000   1.0000   1.0000   1.0000   1.0000   1.0000
     1.0000   1.0000   1.0000   1.0000   1.0000   1.0000   1.0000   1.0000
     1.0000   1.0000   0.0000   0.0000   0.0000   0.0000   0.0000   0.0000
     0.0000   0.0000

          k = 0.0000-0.5774 0.0000 ( 14770 PWs)   bands (ev):

   -62.7708 -62.7708 -38.6516 -38.6516 -36.2662 -36.2662 -36.0751 -36.0751
   -14.1781 -14.1781 -14.0203 -14.0203  -7.7634  -7.7634  -6.7898  -6.7898
    -6.0454  -6.0454  -5.1143  -5.1143  -3.8840  -3.8840  -2.9095  -2.9095
    -2.6039  -2.6039   0.3134   0.3134   0.8244   0.8244   1.9082   1.9082
     2.3455   2.3455

     occupation numbers 
     1.0000   1.0000   1.0000   1.0000   1.0000   1.0000   1.0000   1.0000
     1.0000   1.0000   1.0000   1.0000   1.0000   1.0000   1.0000   1.0000
     1.0000   1.0000   1.0000   1.0000   1.0000   1.0000   1.0000   1.0000
     1.0000   1.0000   0.0000   0.0000   0.0000   0.0000   0.0000   0.0000
     0.0000   0.0000

          k = 0.0833 0.1443 0.0000 ( 14636 PWs)   bands (ev):

   -62.8028 -62.8028 -38.5572 -38.5560 -36.1206 -36.1197 -35.9977 -35.9951
   -15.7804 -15.7783 -14.6659 -14.6657  -7.2707  -7.2680  -5.1583  -5.1467
    -4.6817  -4.6810  -4.2496  -4.2241  -3.9890  -3.9826  -2.9656  -2.9401
    -2.2088  -2.2036   0.4067   0.4196   0.5153   0.5686   0.7201   0.7478
     1.3128   1.3616

     occupation numbers 
     1.0000   1.0000   1.0000   1.0000   1.0000   1.0000   1.0000   1.0000
     1.0000   1.0000   1.0000   1.0000   1.0000   1.0000   1.0000   1.0000
     1.0000   1.0000   1.0000   1.0000   1.0000   1.0000   1.0000   1.0000
     1.0000   1.0000   0.0000   0.0000   0.0000   0.0000   0.0000   0.0000
     0.0000   0.0000

          k = 0.0833 0.2406 0.0000 ( 14707 PWs)   bands (ev):

   -62.7943 -62.7943 -38.5822 -38.5790 -36.1412 -36.1403 -36.0422 -36.0366
   -15.4147 -15.4086 -14.5123 -14.5118  -6.9834  -6.9736  -5.6351  -5.6311
    -5.2284  -5.2186  -4.5441  -4.5395  -3.9460  -3.9064  -3.0036  -2.9744
    -2.5512  -2.5254   0.0994   0.1254   0.4972   0.5060   0.5934   0.6596
     1.7741   1.8206

     occupation numbers 
     1.0000   1.0000   1.0000   1.0000   1.0000   1.0000   1.0000   1.0000
     1.0000   1.0000   1.0000   1.0000   1.0000   1.0000   1.0000   1.0000
     1.0000   1.0000   1.0000   1.0000   1.0000   1.0000   1.0000   1.0000
     1.0000   1.0000   0.0000   0.0000   0.0000   0.0000   0.0000   0.0000
     0.0000   0.0000

          k = 0.0833 0.3368 0.0000 ( 14707 PWs)   bands (ev):

   -62.7844 -62.7844 -38.6122 -38.6066 -36.1840 -36.1809 -36.0708 -36.0658
   -14.9488 -14.9372 -14.3184 -14.3174  -7.0078  -6.9947  -5.8867  -5.8763
    -5.8179  -5.8120  -4.9157  -4.9065  -3.7246  -3.6582  -3.3002  -3.2766
    -2.8552  -2.7890   0.0270   0.0878   0.4534   0.4787   0.9913   1.0400
     2.1358   2.1723

     occupation numbers 
     1.0000   1.0000   1.0000   1.0000   1.0000   1.0000   1.0000   1.0000
     1.0000   1.0000   1.0000   1.0000   1.0000   1.0000   1.0000   1.0000
     1.0000   1.0000   1.0000   1.0000   1.0000   1.0000   1.0000   1.0000
     1.0000   1.0000   0.0000   0.0000   0.0000   0.0000   0.0000   0.0000
     0.0000   0.0000

          k = 0.0833 0.4330 0.0000 ( 14761 PWs)   bands (ev):

   -62.7758 -62.7758 -38.6393 -38.6315 -36.2338 -36.2256 -36.0815 -36.0786
   -14.4923 -14.4743 -14.1325 -14.1309  -7.3532  -7.3528  -6.4758  -6.4686
    -5.8574  -5.8573  -5.0829  -5.0739  -3.6607  -3.6388  -3.5744  -3.5374
    -2.7502  -2.6604   0.1929   0.2291   0.5862   0.5966   1.4757   1.5098
     2.2814   2.3049

     occupation numbers 
     1.0000   1.0000   1.0000   1.0000   1.0000   1.0000   1.0000   1.0000
     1.0000   1.0000   1.0000   1.0000   1.0000   1.0000   1.0000   1.0000
     1.0000   1.0000   1.0000   1.0000   1.0000   1.0000   1.0000   1.0000
     1.0000   1.0000   0.0000   0.0000   0.0000   0.0000   0.0000   0.0000
     0.0000   0.0000

          k = 0.0833 0.5292 0.0000 ( 14751 PWs)   bands (ev):

   -62.7708 -62.7708 -38.6553 -38.6462 -36.2644 -36.2534 -36.0848 -36.0830
   -14.1968 -14.1741 -14.0156 -14.0139  -7.6287  -7.6173  -6.8224  -6.8173
    -5.9890  -5.9813  -5.1360  -5.1273  -3.8420  -3.8373  -3.4816  -3.4114
    -2.5142  -2.4138   0.3008   0.3400   0.7737   0.8693   1.8702   1.8974
     2.1866   2.2034

     occupation numbers 
     1.0000   1.0000   1.0000   1.0000   1.0000   1.0000   1.0000   1.0000
     1.0000   1.0000   1.0000   1.0000   1.0000   1.0000   1.0000   1.0000
     1.0000   1.0000   1.0000   1.0000   1.0000   1.0000   1.0000   1.0000
     1.0000   1.0000   0.0000   0.0000   0.0000   0.0000   0.0000   0.0000
     0.0000   0.0000

          k = 0.1667 0.2887 0.0000 ( 14710 PWs)   bands (ev):

   -62.7857 -62.7857 -38.6090 -38.6013 -36.1714 -36.1683 -36.0761 -36.0682
   -15.0184 -15.0028 -14.3442 -14.3428  -6.9072  -6.8843  -5.7867  -5.7773
    -5.6571  -5.6273  -5.1768  -5.1481  -3.9501  -3.8746  -3.0453  -3.0106
    -2.7962  -2.7238  -0.0900  -0.0216   0.5106   0.5272   0.6966   0.7529
     2.1986   2.2374

     occupation numbers 
     1.0000   1.0000   1.0000   1.0000   1.0000   1.0000   1.0000   1.0000
     1.0000   1.0000   1.0000   1.0000   1.0000   1.0000   1.0000   1.0000
     1.0000   1.0000   1.0000   1.0000   1.0000   1.0000   1.0000   1.0000
     1.0000   1.0000   0.0000   0.0000   0.0000   0.0000   0.0000   0.0000
     0.0000   0.0000

          k = 0.1667 0.3849 0.0000 ( 14730 PWs)   bands (ev):

   -62.7771 -62.7771 -38.6364 -38.6241 -36.2153 -36.2023 -36.0959 -36.0915
   -14.5788 -14.5511 -14.1572 -14.1549  -7.0948  -7.0824  -6.3488  -6.3331
    -5.6948  -5.6846  -5.2837  -5.2635  -4.2342  -4.1623  -3.3445  -3.3231
    -2.7532  -2.6573   0.0611   0.1288   0.6270   0.6308   1.0246   1.0558
     2.4421   2.4527

     occupation numbers 
     1.0000   1.0000   1.0000   1.0000   1.0000   1.0000   1.0000   1.0000
     1.0000   1.0000   1.0000   1.0000   1.0000   1.0000   1.0000   1.0000
     1.0000   1.0000   1.0000   1.0000   1.0000   1.0000   1.0000   1.0000
     1.0000   1.0000   0.0000   0.0000   0.0000   0.0000   0.0000   0.0000
     0.0000   0.0000

          k = 0.1667 0.4811 0.0000 ( 14747 PWs)   bands (ev):

   -62.7708 -62.7708 -38.6569 -38.6412 -36.2522 -36.2308 -36.1048 -36.1041
   -14.2195 -14.1806 -14.0052 -14.0021  -7.2995  -7.2878  -6.8795  -6.8703
    -5.8018  -5.7980  -5.1975  -5.1800  -4.3551  -4.2911  -3.7126  -3.7019
    -2.5088  -2.4008   0.2488   0.2740   0.8048   0.9188   1.3694   1.3730
     2.4660   2.4935

     occupation numbers 
     1.0000   1.0000   1.0000   1.0000   1.0000   1.0000   1.0000   1.0000
     1.0000   1.0000   1.0000   1.0000   1.0000   1.0000   1.0000   1.0000
     1.0000   1.0000   1.0000   1.0000   1.0000   1.0000   1.0000   1.0000
     1.0000   1.0000   0.0000   0.0000   0.0000   0.0000   0.0000   0.0000
     0.0000   0.0000

          k = 0.1667 0.5774 0.0000 ( 14754 PWs)   bands (ev):

   -62.7685 -62.7685 -38.6645 -38.6475 -36.2662 -36.2418 -36.1079 -36.1074
   -14.0776 -14.0340 -13.9457 -13.9425  -7.3825  -7.3569  -7.0724  -7.0655
    -5.9295  -5.9168  -5.1236  -5.1053  -4.3500  -4.2887  -3.8896  -3.8841
    -2.3350  -2.2198   0.1817   0.2296   1.0249   1.1742   1.5056   1.5302
     2.4224   2.4726

     occupation numbers 
     1.0000   1.0000   1.0000   1.0000   1.0000   1.0000   1.0000   1.0000
     1.0000   1.0000   1.0000   1.0000   1.0000   1.0000   1.0000   1.0000
     1.0000   1.0000   1.0000   1.0000   1.0000   1.0000   1.0000   1.0000
     1.0000   1.0000   0.0000   0.0000   0.0000   0.0000   0.0000   0.0000
     0.0000   0.0000

          k = 0.2500 0.4330 0.0000 ( 14746 PWs)   bands (ev):

   -62.7708 -62.7708 -38.6572 -38.6391 -36.2440 -36.2167 -36.1180 -36.1163
   -14.2296 -14.1850 -13.9999 -13.9963  -7.0962  -7.0920  -6.9059  -6.8949
    -5.5736  -5.5668  -5.2369  -5.2179  -4.9084  -4.8539  -3.6335  -3.6240
    -2.5331  -2.4238   0.2091   0.2206   0.8346   0.9464   1.1177   1.1277
     2.6295   2.6673

     occupation numbers 
     1.0000   1.0000   1.0000   1.0000   1.0000   1.0000   1.0000   1.0000
     1.0000   1.0000   1.0000   1.0000   1.0000   1.0000   1.0000   1.0000
     1.0000   1.0000   1.0000   1.0000   1.0000   1.0000   1.0000   1.0000
     1.0000   1.0000   0.0000   0.0000   0.0000   0.0000   0.0000   0.0000
     0.0000   0.0000

          k = 0.2500 0.5292 0.0000 ( 14774 PWs)   bands (ev):

   -62.7672 -62.7672 -38.6692 -38.6477 -36.2615 -36.2233 -36.1350 -36.1272
   -14.0131 -13.9571 -13.8995 -13.8956  -7.2517  -7.2437  -6.9853  -6.9572
    -5.7957  -5.7872  -5.2063  -5.1628  -5.0405  -5.0009  -3.9691  -3.9639
    -2.2314  -2.1042  -0.0226  -0.0019   1.1424   1.1511   1.2901   1.4133
     2.7501   2.8206

     occupation numbers 
     1.0000   1.0000   1.0000   1.0000   1.0000   1.0000   1.0000   1.0000
     1.0000   1.0000   1.0000   1.0000   1.0000   1.0000   1.0000   1.0000
     1.0000   1.0000   1.0000   1.0000   1.0000   1.0000   1.0000   1.0000
     1.0000   1.0000   0.0000   0.0000   0.0000   0.0000   0.0000   0.0000
     0.0000   0.0000

          k = 0.3333 0.5774 0.0000 ( 14766 PWs)   bands (ev):

   -62.7659 -62.7659 -38.6736 -38.6499 -36.2639 -36.2151 -36.1521 -36.1366
   -13.9361 -13.8738 -13.8577 -13.8538  -7.3979  -7.3911  -6.5944  -6.5589
    -6.0813  -6.0239  -5.5266  -5.5086  -4.8903  -4.8403  -4.1696  -4.1462
    -2.0505  -1.9036  -0.2474  -0.2446   1.0400   1.0719   1.5213   1.6635
     2.9011   2.9845

     occupation numbers 
     1.0000   1.0000   1.0000   1.0000   1.0000   1.0000   1.0000   1.0000
     1.0000   1.0000   1.0000   1.0000   1.0000   1.0000   1.0000   1.0000
     1.0000   1.0000   1.0000   1.0000   1.0000   1.0000   1.0000   1.0000
     1.0000   1.0000   0.0000   0.0000   0.0000   0.0000   0.0000   0.0000
     0.0000   0.0000

     the Fermi energy is    -0.5325 ev

!    total energy              =    -184.88759405 Ry
     estimated scf accuracy    <       0.00000003 Ry
     smearing contrib. (-TS)   =      -0.00000000 Ry
     internal energy E=F+TS    =    -184.88759405 Ry

     The total energy is F=E-TS. E is the sum of the following terms:
     one-electron contribution =   -1570.48842628 Ry
     hartree contribution      =     784.64857355 Ry
     xc contribution           =     -33.35339786 Ry
     ewald contribution        =     634.30565654 Ry

     convergence has been achieved in   8 iterations

     Forces acting on atoms (cartesian axes, Ry/au):

     atom    1 type  2   force =     0.00000000    0.00000000    0.00000000
     atom    2 type  1   force =     0.00000000    0.00000000   -0.00044178
     atom    3 type  1   force =    -0.00000000   -0.00000000    0.00044178
     The non-local contrib.  to forces
     atom    1 type  2   force =     0.00000000   -0.00000000    0.00000000
     atom    2 type  1   force =     0.00000000   -0.00000000   -0.26749800
     atom    3 type  1   force =     0.00000000   -0.00000000    0.26749800
     The ionic contribution  to forces
     atom    1 type  2   force =     0.00000912   -0.00000527    0.00000000
     atom    2 type  1   force =    -0.00000456    0.00000263   38.30767726
     atom    3 type  1   force =    -0.00000456    0.00000263  -38.30767726
     The local contribution  to forces
     atom    1 type  2   force =     0.00014596   -0.00001204   -0.00000000
     atom    2 type  1   force =    -0.00000378    0.00000546  -38.04871426
     atom    3 type  1   force =    -0.00000378    0.00000546   38.04871426
     The core correction contribution to forces
     atom    1 type  2   force =    -0.00000307    0.00000025    0.00000000
     atom    2 type  1   force =     0.00000051   -0.00000073    0.00794113
     atom    3 type  1   force =     0.00000051   -0.00000073   -0.00794113
     The Hubbard contrib.    to forces
     atom    1 type  2   force =     0.00000000    0.00000000    0.00000000
     atom    2 type  1   force =     0.00000000    0.00000000    0.00000000
     atom    3 type  1   force =     0.00000000    0.00000000    0.00000000
     The SCF correction term to forces
     atom    1 type  2   force =     0.00000001   -0.00000000   -0.00000000
     atom    2 type  1   force =    -0.00000000    0.00000000    0.00015209
     atom    3 type  1   force =    -0.00000000    0.00000000   -0.00015209

     Total force =     0.000625     Total SCF correction =     0.000215
     SCF correction compared to forces is large: reduce conv_thr to get better values


     Computing stress (Cartesian axis) and pressure

          total   stress  (Ry/bohr**3)                   (kbar)     P=        1.54
   0.00001862   0.00000000  -0.00000000            2.74        0.00       -0.00
   0.00000000   0.00001862   0.00000000            0.00        2.74        0.00
  -0.00000000   0.00000000  -0.00000585           -0.00        0.00       -0.86

     kinetic stress (kbar)   3942.23      0.00     -0.00
                                0.00   3942.23     -0.00
                               -0.00     -0.00   3966.56

     local   stress (kbar)-154961.98     -0.00     -0.00
                               -0.00-154961.98     -0.00
                               -0.00     -0.00 151286.67

     nonloc. stress (kbar)   3121.13      0.00      0.00
                                0.00   3121.13      0.00
                                0.00      0.00   3129.23

     hartree stress (kbar)  75912.70     -0.00      0.00
                               -0.00  75912.70      0.00
                                0.00      0.00 -74276.47

     exc-cor stress (kbar)    -51.05      0.00     -0.00
                                0.00    -51.05     -0.00
                               -0.00     -0.00    -51.85

     corecor stress (kbar)   -888.24     -0.00     -0.00
                               -0.00   -888.24      0.00
                               -0.00      0.00   -889.24

     ewald   stress (kbar)  72927.94      0.00     -0.00
                                0.00  72927.94     -0.00
                               -0.00     -0.00 -83165.75

     hubbard stress (kbar)      0.00      0.00      0.00
                                0.00      0.00      0.00
                                0.00      0.00      0.00

     DFT-D   stress (kbar)      0.00      0.00      0.00
                                0.00      0.00      0.00
                                0.00      0.00      0.00

     XDM     stress (kbar)      0.00      0.00      0.00
                                0.00      0.00      0.00
                                0.00      0.00      0.00

     dft-nl  stress (kbar)      0.00      0.00      0.00
                                0.00      0.00      0.00
                                0.00      0.00      0.00

     TS-vdW  stress (kbar)      0.00      0.00      0.00
                                0.00      0.00      0.00
                                0.00      0.00      0.00

     MDB     stress (kbar)      0.00      0.00      0.00
                                0.00      0.00      0.00
                                0.00      0.00      0.00

     3D-RISM stress (kbar)      0.00      0.00      0.00
                                0.00      0.00      0.00
                                0.00      0.00      0.00


     Writing all to output data dir ./tmp/MoS2_1L_pbe_vdW_wsoc.save/

     init_run     :      2.65s CPU      2.22s WALL (       1 calls)
     electrons    :     60.24s CPU     47.28s WALL (       1 calls)
     forces       :      1.86s CPU      1.33s WALL (       1 calls)
     stress       :     10.75s CPU     10.62s WALL (       1 calls)

     Called by init_run:
     wfcinit      :      2.03s CPU      1.57s WALL (       1 calls)
     wfcinit:atom :      0.05s CPU      0.05s WALL (      19 calls)
     wfcinit:wfcr :      1.83s CPU      1.37s WALL (      19 calls)
     potinit      :      0.10s CPU      0.10s WALL (       1 calls)
     hinit0       :      0.36s CPU      0.36s WALL (       1 calls)

     Called by electrons:
     c_bands      :     53.74s CPU     40.47s WALL (       8 calls)
     sum_band     :      6.08s CPU      6.25s WALL (       8 calls)
     v_of_rho     :      0.19s CPU      0.23s WALL (       9 calls)
     v_h          :      0.02s CPU      0.02s WALL (       9 calls)
     v_xc         :      0.21s CPU      0.26s WALL (      11 calls)
     mix_rho      :      0.21s CPU      0.29s WALL (       8 calls)

     Called by c_bands:
     init_us_2    :      0.67s CPU      0.69s WALL (     361 calls)
     init_us_2:cp :      0.67s CPU      0.69s WALL (     361 calls)
     cegterg      :     49.78s CPU     36.47s WALL (     152 calls)

     Called by sum_band:
     sum_band:wei :      0.00s CPU      0.00s WALL (       8 calls)
     sum_band:loo :      6.02s CPU      6.19s WALL (       8 calls)
     sum_band:buf :      0.27s CPU      0.27s WALL (     152 calls)
     sum_band:ini :      0.29s CPU      0.30s WALL (     152 calls)

     Called by *egterg:
     cdiaghg      :      0.91s CPU      0.94s WALL (     589 calls)
     cegterg:over :      6.10s CPU      3.38s WALL (     437 calls)
     cegterg:upda :      3.49s CPU      1.79s WALL (     437 calls)
     cegterg:last :      6.04s CPU      3.36s WALL (     331 calls)
     h_psi        :     31.80s CPU     26.04s WALL (     608 calls)
     g_psi        :      0.22s CPU      0.26s WALL (     437 calls)

     Called by h_psi:
     h_psi:calbec :      7.49s CPU      4.10s WALL (     608 calls)
     vloc_psi     :     16.91s CPU     17.49s WALL (     608 calls)
     add_vuspsi   :      7.01s CPU      4.03s WALL (     608 calls)

     General routines
     calbec       :      9.75s CPU      5.53s WALL (     703 calls)
     fft          :      0.28s CPU      0.29s WALL (     165 calls)
     ffts         :      0.02s CPU      0.02s WALL (      32 calls)
     fftw         :     16.31s CPU     16.80s WALL (   67004 calls)

     Parallel routines

     PWSCF        :   1m15.86s CPU   1m 1.94s WALL


   This run was terminated on:  10:29:25  18Apr2024            

=------------------------------------------------------------------------------=
   JOB DONE.
=------------------------------------------------------------------------------=
