
     Program PWSCF v.7.2 starts on 18Apr2024 at 10: 1:31 

     This program is part of the open-source Quantum ESPRESSO suite
     for quantum simulation of materials; please cite
         "P. Giannozzi et al., J. Phys.:Condens. Matter 21 395502 (2009);
         "P. Giannozzi et al., J. Phys.:Condens. Matter 29 465901 (2017);
         "P. Giannozzi et al., J. Chem. Phys. 152 154105 (2020);
          URL http://www.quantum-espresso.org", 
     in publications or presentations arising from this work. More details at
     http://www.quantum-espresso.org/quote

     Parallel version (MPI & OpenMP), running on       8 processor cores
     Number of MPI processes:                 8
     Threads/MPI process:                     1

     MPI processes distributed on     1 nodes
     0 MiB available memory on the printing compute node when the environment starts

     Waiting for input...
     Reading input from standard input

     Current dimensions of program PWSCF are:
     Max number of different atomic species (ntypx) = 10
     Max number of k-points (npk) =  40000
     Max angular momentum in pseudopotentials (lmaxx) =  4

     IMPORTANT: XC functional enforced from input :
     Exchange-correlation= VDW-DF2-B86R
                           (   1   4  26   0   2   0   0)
     Any further DFT definition will be discarded
     Please, verify this is what you really want


     R & G space division:  proc/nbgrp/npool/nimage =       8
     Subspace diagonalization in iterative solution of the eigenvalue problem:
     a serial algorithm will be used


     Parallelization info
     --------------------
     sticks:   dense  smooth     PW     G-vecs:    dense   smooth      PW
     Min          85      85     24                14691    14691    2318
     Max          86      86     25                14716    14716    2353
     Sum         685     685    199               117663   117663   18769

     Using Slab Decomposition



     bravais-lattice index     =            4
     lattice parameter (alat)  =       5.9892  a.u.
     unit-cell volume          =    1488.4254 (a.u.)^3
     number of atoms/cell      =            3
     number of atomic types    =            2
     number of electrons       =        26.00
     number of Kohn-Sham states=           17
     kinetic-energy cutoff     =      70.0000  Ry
     charge density cutoff     =     280.0000  Ry
     scf convergence threshold =      1.0E-07
     mixing beta               =       0.7000
     number of iterations used =            8  plain     mixing
     Exchange-correlation= VDW-DF2-B86R
                           (   1   4  26   0   2   0   0)

     celldm(1)=   5.989200  celldm(2)=   0.000000  celldm(3)=   8.000000
     celldm(4)=   0.000000  celldm(5)=   0.000000  celldm(6)=   0.000000

     crystal axes: (cart. coord. in units of alat)
               a(1) = (   1.000000   0.000000   0.000000 )  
               a(2) = (  -0.500000   0.866025   0.000000 )  
               a(3) = (   0.000000   0.000000   8.000000 )  

     reciprocal axes: (cart. coord. in units 2 pi/alat)
               b(1) = (  1.000000  0.577350 -0.000000 )  
               b(2) = (  0.000000  1.154701  0.000000 )  
               b(3) = (  0.000000 -0.000000  0.125000 )  


     PseudoPot. # 1 for S  read from file:
     ../../../Pseudo/PBE/S.upf
     MD5 check sum: b72b6a9ca752e39de1a6cc592280dae2
     Pseudo is Norm-conserving + core correction, Zval =  6.0
     Generated using ONCVPSP code by D. R. Hamann
     Using radial grid of 1148 points,  6 beta functions with: 
                l(1) =   0
                l(2) =   0
                l(3) =   1
                l(4) =   1
                l(5) =   2
                l(6) =   2

     PseudoPot. # 2 for Mo read from file:
     ../../../Pseudo/PBE/Mo.upf
     MD5 check sum: 7ca7a9feba7bf08d88d14bc7fbf60c1e
     Pseudo is Norm-conserving + core correction, Zval = 14.0
     Generated using ONCVPSP code by D. R. Hamann
     Using radial grid of 1640 points,  6 beta functions with: 
                l(1) =   0
                l(2) =   0
                l(3) =   1
                l(4) =   1
                l(5) =   2
                l(6) =   2

     atomic species   valence    mass     pseudopotential
        S              6.00    32.06500     S ( 1.00)
        Mo            14.00   183.84000     Mo( 1.00)

     12 Sym. Ops. (no inversion) found


                                    s                        frac. trans.

      isym =  1     identity                                     

 cryst.   s( 1) = (     1          0          0      )
                  (     0          1          0      )
                  (     0          0          1      )

 cart.    s( 1) = (  1.0000000  0.0000000  0.0000000 )
                  (  0.0000000  1.0000000  0.0000000 )
                  (  0.0000000  0.0000000  1.0000000 )


      isym =  2     180 deg rotation - cart. axis [0,1,0]        

 cryst.   s( 2) = (    -1          0          0      )
                  (     1          1          0      )
                  (     0          0         -1      )

 cart.    s( 2) = ( -1.0000000  0.0000000  0.0000000 )
                  (  0.0000000  1.0000000  0.0000000 )
                  (  0.0000000  0.0000000 -1.0000000 )


      isym =  3     120 deg rotation - cryst. axis [0,0,1]       

 cryst.   s( 3) = (     0          1          0      )
                  (    -1         -1          0      )
                  (     0          0          1      )

 cart.    s( 3) = ( -0.5000000 -0.8660254  0.0000000 )
                  (  0.8660254 -0.5000000  0.0000000 )
                  (  0.0000000  0.0000000  1.0000000 )


      isym =  4     120 deg rotation - cryst. axis [0,0,-1]      

 cryst.   s( 4) = (    -1         -1          0      )
                  (     1          0          0      )
                  (     0          0          1      )

 cart.    s( 4) = ( -0.5000000  0.8660254  0.0000000 )
                  ( -0.8660254 -0.5000000  0.0000000 )
                  (  0.0000000  0.0000000  1.0000000 )


      isym =  5     180 deg rotation - cryst. axis [1,-1,0]      

 cryst.   s( 5) = (     0         -1          0      )
                  (    -1          0          0      )
                  (     0          0         -1      )

 cart.    s( 5) = (  0.5000000 -0.8660254  0.0000000 )
                  ( -0.8660254 -0.5000000  0.0000000 )
                  (  0.0000000  0.0000000 -1.0000000 )


      isym =  6     180 deg rotation - cryst. axis [2,1,0]       

 cryst.   s( 6) = (     1          1          0      )
                  (     0         -1          0      )
                  (     0          0         -1      )

 cart.    s( 6) = (  0.5000000  0.8660254  0.0000000 )
                  (  0.8660254 -0.5000000  0.0000000 )
                  (  0.0000000  0.0000000 -1.0000000 )


      isym =  7     inv. 180 deg rotation - cart. axis [0,0,1]   

 cryst.   s( 7) = (     1          0          0      )
                  (     0          1          0      )
                  (     0          0         -1      )

 cart.    s( 7) = (  1.0000000  0.0000000  0.0000000 )
                  (  0.0000000  1.0000000  0.0000000 )
                  (  0.0000000  0.0000000 -1.0000000 )


      isym =  8     inv. 180 deg rotation - cart. axis [1,0,0]   

 cryst.   s( 8) = (    -1          0          0      )
                  (     1          1          0      )
                  (     0          0          1      )

 cart.    s( 8) = ( -1.0000000  0.0000000  0.0000000 )
                  (  0.0000000  1.0000000  0.0000000 )
                  (  0.0000000  0.0000000  1.0000000 )


      isym =  9     inv.  60 deg rotation - cryst. axis [0,0,1]  

 cryst.   s( 9) = (    -1         -1          0      )
                  (     1          0          0      )
                  (     0          0         -1      )

 cart.    s( 9) = ( -0.5000000  0.8660254  0.0000000 )
                  ( -0.8660254 -0.5000000  0.0000000 )
                  (  0.0000000  0.0000000 -1.0000000 )


      isym = 10     inv.  60 deg rotation - cryst. axis [0,0,-1] 

 cryst.   s(10) = (     0          1          0      )
                  (    -1         -1          0      )
                  (     0          0         -1      )

 cart.    s(10) = ( -0.5000000 -0.8660254  0.0000000 )
                  (  0.8660254 -0.5000000  0.0000000 )
                  (  0.0000000  0.0000000 -1.0000000 )


      isym = 11     inv. 180 deg rotation - cryst. axis [0,1,0]  

 cryst.   s(11) = (     1          1          0      )
                  (     0         -1          0      )
                  (     0          0          1      )

 cart.    s(11) = (  0.5000000  0.8660254  0.0000000 )
                  (  0.8660254 -0.5000000  0.0000000 )
                  (  0.0000000  0.0000000  1.0000000 )


      isym = 12     inv. 180 deg rotation - cryst. axis [1,1,0]  

 cryst.   s(12) = (     0         -1          0      )
                  (    -1          0          0      )
                  (     0          0          1      )

 cart.    s(12) = (  0.5000000 -0.8660254  0.0000000 )
                  ( -0.8660254 -0.5000000  0.0000000 )
                  (  0.0000000  0.0000000  1.0000000 )


     point group D_3h (-62m)
     there are  6 classes
     the character table:

       E     2C3   3C2   s_h   2S3   3s_v 
A'_1   1.00  1.00  1.00  1.00  1.00  1.00
A'_2   1.00  1.00 -1.00  1.00  1.00 -1.00
E'     2.00 -1.00  0.00  2.00 -1.00  0.00
A''1   1.00  1.00  1.00 -1.00 -1.00 -1.00
A''2   1.00  1.00 -1.00 -1.00 -1.00  1.00
E''    2.00 -1.00  0.00 -2.00  1.00  0.00

     the symmetry operations in each class and the name of the first element:

     E        1
          identity                                               
     2C3      3    4
          120 deg rotation - cryst. axis [0,0,1]                 
     3C2      2    6    5
          180 deg rotation - cart. axis [0,1,0]                  
     s_h      7
          inv. 180 deg rotation - cart. axis [0,0,1]             
     2S3      9   10
          inv.  60 deg rotation - cryst. axis [0,0,1]            
     3s_v     8   11   12
          inv. 180 deg rotation - cart. axis [1,0,0]             

   Cartesian axes

     site n.     atom                  positions (alat units)
         1           Mo  tau(   1) = (  -0.0000003   0.5773503   0.0000000  )
         2           S   tau(   2) = (   0.5000002   0.2886748   0.4951576  )
         3           S   tau(   3) = (   0.5000002   0.2886748  -0.4951576  )

   Crystallographic axes

     site n.     atom                  positions (cryst. coord.)
         1           Mo  tau(   1) = (  0.3333330  0.6666667  0.0000000  )
         2           S   tau(   2) = (  0.6666667  0.3333330  0.0618947  )
         3           S   tau(   3) = (  0.6666667  0.3333330 -0.0618947  )

     number of k points=    19  Marzari-Vanderbilt smearing, width (Ry)=  0.0050
                       cart. coord. in units 2pi/alat
        k(    1) = (   0.0000000   0.0000000   0.0000000), wk =   0.0138889
        k(    2) = (   0.0000000   0.0962250   0.0000000), wk =   0.0833333
        k(    3) = (   0.0000000   0.1924501   0.0000000), wk =   0.0833333
        k(    4) = (   0.0000000   0.2886751   0.0000000), wk =   0.0833333
        k(    5) = (   0.0000000   0.3849002   0.0000000), wk =   0.0833333
        k(    6) = (   0.0000000   0.4811252   0.0000000), wk =   0.0833333
        k(    7) = (   0.0000000  -0.5773503   0.0000000), wk =   0.0416667
        k(    8) = (   0.0833333   0.1443376   0.0000000), wk =   0.0833333
        k(    9) = (   0.0833333   0.2405626   0.0000000), wk =   0.1666667
        k(   10) = (   0.0833333   0.3367877   0.0000000), wk =   0.1666667
        k(   11) = (   0.0833333   0.4330127   0.0000000), wk =   0.1666667
        k(   12) = (   0.0833333   0.5292377   0.0000000), wk =   0.1666667
        k(   13) = (   0.1666667   0.2886751   0.0000000), wk =   0.0833333
        k(   14) = (   0.1666667   0.3849002   0.0000000), wk =   0.1666667
        k(   15) = (   0.1666667   0.4811252   0.0000000), wk =   0.1666667
        k(   16) = (   0.1666667   0.5773503   0.0000000), wk =   0.0833333
        k(   17) = (   0.2500000   0.4330127   0.0000000), wk =   0.0833333
        k(   18) = (   0.2500000   0.5292377   0.0000000), wk =   0.1666667
        k(   19) = (   0.3333333   0.5773503   0.0000000), wk =   0.0277778

                       cryst. coord.
        k(    1) = (   0.0000000   0.0000000   0.0000000), wk =   0.0138889
        k(    2) = (   0.0000000   0.0833333   0.0000000), wk =   0.0833333
        k(    3) = (   0.0000000   0.1666667   0.0000000), wk =   0.0833333
        k(    4) = (   0.0000000   0.2500000   0.0000000), wk =   0.0833333
        k(    5) = (   0.0000000   0.3333333   0.0000000), wk =   0.0833333
        k(    6) = (   0.0000000   0.4166667   0.0000000), wk =   0.0833333
        k(    7) = (   0.0000000  -0.5000000   0.0000000), wk =   0.0416667
        k(    8) = (   0.0833333   0.0833333   0.0000000), wk =   0.0833333
        k(    9) = (   0.0833333   0.1666667   0.0000000), wk =   0.1666667
        k(   10) = (   0.0833333   0.2500000   0.0000000), wk =   0.1666667
        k(   11) = (   0.0833333   0.3333333   0.0000000), wk =   0.1666667
        k(   12) = (   0.0833333   0.4166667   0.0000000), wk =   0.1666667
        k(   13) = (   0.1666667   0.1666667   0.0000000), wk =   0.0833333
        k(   14) = (   0.1666667   0.2500000   0.0000000), wk =   0.1666667
        k(   15) = (   0.1666667   0.3333333   0.0000000), wk =   0.1666667
        k(   16) = (   0.1666667   0.4166667   0.0000000), wk =   0.0833333
        k(   17) = (   0.2500000   0.2500000   0.0000000), wk =   0.0833333
        k(   18) = (   0.2500000   0.3333333   0.0000000), wk =   0.1666667
        k(   19) = (   0.3333333   0.3333333   0.0000000), wk =   0.0277778

     Dense  grid:   117663 G-vectors     FFT dimensions: (  32,  32, 256)

     Dynamical RAM for                 wfc:       0.48 MB

     Dynamical RAM for     wfc (w. buffer):       9.55 MB

     Dynamical RAM for           str. fact:       0.45 MB

     Dynamical RAM for           local pot:       0.00 MB

     Dynamical RAM for          nlocal pot:       1.52 MB

     Dynamical RAM for                qrad:       2.69 MB

     Dynamical RAM for          rho,v,vnew:       1.42 MB

     Dynamical RAM for               rhoin:       0.47 MB

     Dynamical RAM for            rho*nmix:       3.59 MB

     Dynamical RAM for           G-vectors:       0.95 MB

     Dynamical RAM for          h,s,v(r/c):       0.05 MB

     Dynamical RAM for          <psi|beta>:       0.01 MB

     Dynamical RAM for                 psi:       0.95 MB

     Dynamical RAM for                hpsi:       0.95 MB

     Dynamical RAM for      wfcinit/wfcrot:       1.02 MB

     Estimated static dynamical RAM per process >      18.97 MB

     Estimated max dynamical RAM per process >      24.53 MB

     Estimated total dynamical RAM >     196.27 MB

     Initial potential from superposition of free atoms

     starting charge      25.9985, renormalised to      26.0000

     negative rho (up, down):  6.242E-05 0.000E+00


     %%%%%%%%%%%%%%%%%%%%%%%%%%%%%%%%%%%%%%%%%%%%%%%%%%%%%%%%%%%%%%%%%%%%%%%%
     %                                                                      %
     % You are using vdW-DF, which was implemented by the Thonhauser group. %
     % Please cite the following two papers that made this development      %
     % possible and the two reviews that describe the various versions:     %
     %                                                                      %
     %   T. Thonhauser et al., PRL 115, 136402 (2015).                      %
     %   T. Thonhauser et al., PRB 76, 125112 (2007).                       %
     %   K. Berland et al., Rep. Prog. Phys. 78, 066501 (2015).             %
     %   D.C. Langreth et al., J. Phys.: Condens. Matter 21, 084203 (2009). %
     %                                                                      %
     % If you are calculating stress with vdW-DF, please also cite:         %
     %                                                                      %
     %   R. Sabatini et al., J. Phys.: Condens. Matter 24, 424209 (2012).   %
     %                                                                      %
     %%%%%%%%%%%%%%%%%%%%%%%%%%%%%%%%%%%%%%%%%%%%%%%%%%%%%%%%%%%%%%%%%%%%%%%%

     %%%%%%%%%%%%%%%%%%%%%%%%%%%%%%%%%%%%%%%%%%%%%%%%%%%%%%%%%%%%%%%%%%%%%%%%
     %                                                                      %
     %  vdW-DF NEWS:                                                        %
     %                                                                      %
     %  * vdW-DF3 is now available. DOI: 10.1021/acs.jctc.0c00471           %
     %    use with input_dft = 'vdW-DF3-opt1' or 'vdW-DF3-opt2'             %
     %                                                                      %
     %  * Unscreened and range-separated hybrid vdW-DF-cx functionals       %
     %    DOI: 10.1063/1.4986522 and 10.1088/1361-648X/ac2ad2               %
     %    use with input_dft = 'vdW-DF-cx0'    and 'vdW-DF-ahcx'            %
     %  * Unscreened and range-separated hybrid vdW-DF2-b86r functionals    %
     %    DOI: 10.1063/1.4986522 and DOI: 10.1103/PhysRevX.12.041003        %
     %    use with input_dft = 'vdW-DF2-br0' and 'vdW-DF2-ahbr'             %
     %                                                                      %
     %%%%%%%%%%%%%%%%%%%%%%%%%%%%%%%%%%%%%%%%%%%%%%%%%%%%%%%%%%%%%%%%%%%%%%%%


     Carrying out vdW-DF run using the following parameters:
     Nqs    =  20  Npoints =  1024  r_max =  100.000
     q_mesh =  0.00001000  0.04494208  0.09755937  0.15916263
               0.23128650  0.31572767  0.41458969  0.53033537
               0.66584808  0.82450364  1.01025438  1.22772762
               1.48234092  1.78043706  2.12944203  2.53805004
               3.01644009  3.57652955  4.23227104  5.00000000


     -----------------------------------------------
     Non-local corr. energy    =       0.30479762 Ry
     -----------------------------------------------

     Starting wfcs are   18 randomized atomic wfcs

     total cpu time spent up to now is        9.8 secs

     Self-consistent Calculation

     iteration #  1     ecut=    70.00 Ry     beta= 0.70
     Davidson diagonalization with overlap

---- Real-time Memory Report at c_bands before calling an iterative solver
             0 MiB given to the printing process from OS
             0 MiB allocation reported by mallinfo(arena+hblkhd)
             0 MiB available memory on the node where the printing process lives
------------------
     ethr =  1.00E-02,  avg # of iterations =  3.1


     -----------------------------------------------
     Non-local corr. energy    =       0.30529352 Ry
     -----------------------------------------------


     total cpu time spent up to now is       11.2 secs

     total energy              =    -184.60528894 Ry
     estimated scf accuracy    <       0.44275638 Ry

     iteration #  2     ecut=    70.00 Ry     beta= 0.70
     Davidson diagonalization with overlap

---- Real-time Memory Report at c_bands before calling an iterative solver
             0 MiB given to the printing process from OS
             0 MiB allocation reported by mallinfo(arena+hblkhd)
             0 MiB available memory on the node where the printing process lives
------------------
     ethr =  1.70E-03,  avg # of iterations =  3.2


     -----------------------------------------------
     Non-local corr. energy    =       0.30475865 Ry
     -----------------------------------------------


     total cpu time spent up to now is       12.8 secs

     total energy              =    -184.02685746 Ry
     estimated scf accuracy    <       6.19245332 Ry

     iteration #  3     ecut=    70.00 Ry     beta= 0.70
     Davidson diagonalization with overlap

---- Real-time Memory Report at c_bands before calling an iterative solver
             0 MiB given to the printing process from OS
             0 MiB allocation reported by mallinfo(arena+hblkhd)
             0 MiB available memory on the node where the printing process lives
------------------
     ethr =  1.70E-03,  avg # of iterations =  2.7


     -----------------------------------------------
     Non-local corr. energy    =       0.30321332 Ry
     -----------------------------------------------


     total cpu time spent up to now is       14.1 secs

     total energy              =    -184.86474914 Ry
     estimated scf accuracy    <       0.06253406 Ry

     iteration #  4     ecut=    70.00 Ry     beta= 0.70
     Davidson diagonalization with overlap

---- Real-time Memory Report at c_bands before calling an iterative solver
             0 MiB given to the printing process from OS
             0 MiB allocation reported by mallinfo(arena+hblkhd)
             0 MiB available memory on the node where the printing process lives
------------------
     ethr =  2.41E-04,  avg # of iterations =  1.9


     -----------------------------------------------
     Non-local corr. energy    =       0.30279903 Ry
     -----------------------------------------------


     total cpu time spent up to now is       15.3 secs

     total energy              =    -184.86766098 Ry
     estimated scf accuracy    <       0.00966991 Ry

     iteration #  5     ecut=    70.00 Ry     beta= 0.70
     Davidson diagonalization with overlap

---- Real-time Memory Report at c_bands before calling an iterative solver
             0 MiB given to the printing process from OS
             0 MiB allocation reported by mallinfo(arena+hblkhd)
             0 MiB available memory on the node where the printing process lives
------------------
     ethr =  3.72E-05,  avg # of iterations =  2.1


     -----------------------------------------------
     Non-local corr. energy    =       0.30302159 Ry
     -----------------------------------------------


     total cpu time spent up to now is       16.4 secs

     total energy              =    -184.86919979 Ry
     estimated scf accuracy    <       0.00007907 Ry

     iteration #  6     ecut=    70.00 Ry     beta= 0.70
     Davidson diagonalization with overlap

---- Real-time Memory Report at c_bands before calling an iterative solver
             0 MiB given to the printing process from OS
             0 MiB allocation reported by mallinfo(arena+hblkhd)
             0 MiB available memory on the node where the printing process lives
------------------
     ethr =  3.04E-07,  avg # of iterations =  4.9


     -----------------------------------------------
     Non-local corr. energy    =       0.30305664 Ry
     -----------------------------------------------


     total cpu time spent up to now is       18.1 secs

     total energy              =    -184.86925660 Ry
     estimated scf accuracy    <       0.00000374 Ry

     iteration #  7     ecut=    70.00 Ry     beta= 0.70
     Davidson diagonalization with overlap

---- Real-time Memory Report at c_bands before calling an iterative solver
             0 MiB given to the printing process from OS
             0 MiB allocation reported by mallinfo(arena+hblkhd)
             0 MiB available memory on the node where the printing process lives
------------------
     ethr =  1.44E-08,  avg # of iterations =  2.9


     -----------------------------------------------
     Non-local corr. energy    =       0.30304194 Ry
     -----------------------------------------------


     total cpu time spent up to now is       19.4 secs

     total energy              =    -184.86925775 Ry
     estimated scf accuracy    <       0.00000039 Ry

     iteration #  8     ecut=    70.00 Ry     beta= 0.70
     Davidson diagonalization with overlap

---- Real-time Memory Report at c_bands before calling an iterative solver
             0 MiB given to the printing process from OS
             0 MiB allocation reported by mallinfo(arena+hblkhd)
             0 MiB available memory on the node where the printing process lives
------------------
     ethr =  1.49E-09,  avg # of iterations =  2.4


     -----------------------------------------------
     Non-local corr. energy    =       0.30304532 Ry
     -----------------------------------------------


     total cpu time spent up to now is       20.7 secs

     total energy              =    -184.86925785 Ry
     estimated scf accuracy    <       0.00000011 Ry

     iteration #  9     ecut=    70.00 Ry     beta= 0.70
     Davidson diagonalization with overlap

---- Real-time Memory Report at c_bands before calling an iterative solver
             0 MiB given to the printing process from OS
             0 MiB allocation reported by mallinfo(arena+hblkhd)
             0 MiB available memory on the node where the printing process lives
------------------
     ethr =  4.09E-10,  avg # of iterations =  1.9


     -----------------------------------------------
     Non-local corr. energy    =       0.30304619 Ry
     -----------------------------------------------


     total cpu time spent up to now is       21.9 secs

     End of self-consistent calculation

          k = 0.0000 0.0000 0.0000 ( 14593 PWs)   bands (ev):

   -62.9595 -37.1233 -36.8951 -36.8951 -16.2297 -14.9420  -7.7505  -4.7152
    -4.7152  -3.9772  -3.6012  -3.6011  -2.2248   0.6605   0.6606   0.8846
     0.8846

     occupation numbers 
     1.0000   1.0000   1.0000   1.0000   1.0000   1.0000   1.0000   1.0000
     1.0000   1.0000   1.0000   1.0000   1.0000   0.0000   0.0000   0.0000
     0.0000

          k = 0.0000 0.0962 0.0000 ( 14577 PWs)   bands (ev):

   -62.9568 -37.1181 -36.9218 -36.9011 -16.1258 -14.8989  -7.6305  -4.9449
    -4.6060  -4.4286  -3.7662  -3.3066  -2.2664   0.5200   0.5859   0.7679
     0.8392

     occupation numbers 
     1.0000   1.0000   1.0000   1.0000   1.0000   1.0000   1.0000   1.0000
     1.0000   1.0000   1.0000   1.0000   1.0000   0.0000   0.0000   0.0000
     0.0000

          k = 0.0000 0.1925 0.0000 ( 14658 PWs)   bands (ev):

   -62.9496 -37.1038 -36.9942 -36.9177 -15.8305 -14.7764  -7.3286  -5.4718
    -5.0662  -4.3014  -4.1548  -3.2232  -2.4757   0.1185   0.4503   0.4969
     1.2469

     occupation numbers 
     1.0000   1.0000   1.0000   1.0000   1.0000   1.0000   1.0000   1.0000
     1.0000   1.0000   1.0000   1.0000   1.0000   0.0000   0.0000   0.0000
     0.0000

          k = 0.0000 0.2887 0.0000 ( 14684 PWs)   bands (ev):

   -62.9397 -37.0917 -37.0842 -36.9402 -15.3930 -14.5963  -7.1117  -5.9181
    -5.7186  -4.5903  -3.8748  -3.4733  -2.8896  -0.0213   0.2290   0.7615
     1.6650

     occupation numbers 
     1.0000   1.0000   1.0000   1.0000   1.0000   1.0000   1.0000   1.0000
     1.0000   1.0000   1.0000   1.0000   1.0000   0.0000   0.0000   0.0000
     0.0000

          k = 0.0000 0.3849 0.0000 ( 14712 PWs)   bands (ev):

   -62.9298 -37.1878 -37.0646 -36.9626 -14.9016 -14.3984  -7.3617  -6.3234
    -6.0055  -4.9568  -3.7790  -3.4492  -3.1283   0.0894   0.1605   1.2453
     1.9656

     occupation numbers 
     1.0000   1.0000   1.0000   1.0000   1.0000   1.0000   1.0000   1.0000
     1.0000   1.0000   1.0000   1.0000   1.0000   0.0000   0.0000   0.0000
     0.0000

          k = 0.0000 0.4811 0.0000 ( 14718 PWs)   bands (ev):

   -62.9225 -37.2572 -37.0502 -36.9789 -14.4921 -14.2393  -7.7433  -6.7671
    -6.1071  -5.1947  -3.9736  -3.1560  -2.9428   0.0971   0.4572   1.6056
     2.1278

     occupation numbers 
     1.0000   1.0000   1.0000   1.0000   1.0000   1.0000   1.0000   1.0000
     1.0000   1.0000   1.0000   1.0000   1.0000   0.0000   0.0000   0.0000
     0.0000

          k = 0.0000-0.5774 0.0000 ( 14770 PWs)   bands (ev):

   -62.9198 -37.2825 -37.0450 -36.9849 -14.3276 -14.1775  -7.9064  -6.9316
    -6.1859  -5.2766  -4.0362  -3.0571  -2.7690   0.1315   0.6250   1.7220
     2.1768

     occupation numbers 
     1.0000   1.0000   1.0000   1.0000   1.0000   1.0000   1.0000   1.0000
     1.0000   1.0000   1.0000   1.0000   1.0000   0.0000   0.0000   0.0000
     0.0000

          k = 0.0833 0.1443 0.0000 ( 14636 PWs)   bands (ev):

   -62.9519 -37.1083 -36.9700 -36.9138 -15.9261 -14.8159  -7.4157  -5.3164
    -4.8528  -4.4071  -4.1503  -3.1160  -2.3922   0.2261   0.3698   0.5592
     1.1702

     occupation numbers 
     1.0000   1.0000   1.0000   1.0000   1.0000   1.0000   1.0000   1.0000
     1.0000   1.0000   1.0000   1.0000   1.0000   0.0000   0.0000   0.0000
     0.0000

          k = 0.0833 0.2406 0.0000 ( 14707 PWs)   bands (ev):

   -62.9433 -37.0915 -37.0515 -36.9369 -15.5587 -14.6636  -7.1237  -5.7889
    -5.3895  -4.7031  -4.0907  -3.1440  -2.7162  -0.0819   0.3296   0.4340
     1.6266

     occupation numbers 
     1.0000   1.0000   1.0000   1.0000   1.0000   1.0000   1.0000   1.0000
     1.0000   1.0000   1.0000   1.0000   1.0000   0.0000   0.0000   0.0000
     0.0000

          k = 0.0833 0.3368 0.0000 ( 14707 PWs)   bands (ev):

   -62.9334 -37.1440 -37.0718 -36.9635 -15.0906 -14.4715  -7.1497  -6.0325
    -5.9609  -5.0727  -3.8475  -3.4411  -2.9995  -0.1330   0.2792   0.8247
     1.9797

     occupation numbers 
     1.0000   1.0000   1.0000   1.0000   1.0000   1.0000   1.0000   1.0000
     1.0000   1.0000   1.0000   1.0000   1.0000   0.0000   0.0000   0.0000
     0.0000

          k = 0.0833 0.4330 0.0000 ( 14761 PWs)   bands (ev):

   -62.9248 -37.2231 -37.0548 -36.9865 -14.6318 -14.2875  -7.4997  -6.6204
    -5.9936  -5.2390  -3.7784  -3.7311  -2.8789   0.0273   0.3955   1.3064
     2.1161

     occupation numbers 
     1.0000   1.0000   1.0000   1.0000   1.0000   1.0000   1.0000   1.0000
     1.0000   1.0000   1.0000   1.0000   1.0000   0.0000   0.0000   0.0000
     0.0000

          k = 0.0833 0.5292 0.0000 ( 14751 PWs)   bands (ev):

   -62.9198 -37.2684 -37.0450 -36.9997 -14.3348 -14.1719  -7.7664  -6.9642
    -6.1244  -5.2910  -3.9885  -3.5960  -2.6339   0.1353   0.6259   1.7054
     2.0133

     occupation numbers 
     1.0000   1.0000   1.0000   1.0000   1.0000   1.0000   1.0000   1.0000
     1.0000   1.0000   1.0000   1.0000   1.0000   0.0000   0.0000   0.0000
     0.0000

          k = 0.1667 0.2887 0.0000 ( 14710 PWs)   bands (ev):

   -62.9347 -37.1216 -37.0745 -36.9703 -15.1581 -14.4968  -7.0425  -5.9266
    -5.8020  -5.3225  -4.0675  -3.1760  -2.9392  -0.2490   0.3356   0.5318
     2.0391

     occupation numbers 
     1.0000   1.0000   1.0000   1.0000   1.0000   1.0000   1.0000   1.0000
     1.0000   1.0000   1.0000   1.0000   1.0000   0.0000   0.0000   0.0000
     0.0000

          k = 0.1667 0.3849 0.0000 ( 14730 PWs)   bands (ev):

   -62.9261 -37.1875 -37.0575 -37.0071 -14.7131 -14.3115  -7.2355  -6.4934
    -5.8253  -5.4316  -4.3482  -3.4809  -2.8852  -0.0967   0.4393   0.8525
     2.2631

     occupation numbers 
     1.0000   1.0000   1.0000   1.0000   1.0000   1.0000   1.0000   1.0000
     1.0000   1.0000   1.0000   1.0000   1.0000   0.0000   0.0000   0.0000
     0.0000

          k = 0.1667 0.4811 0.0000 ( 14747 PWs)   bands (ev):

   -62.9198 -37.2341 -37.0450 -37.0353 -14.3491 -14.1608  -7.4379  -7.0240
    -5.9361  -5.3427  -4.4652  -3.8570  -2.6357   0.0739   0.6696   1.1891
     2.2924

     occupation numbers 
     1.0000   1.0000   1.0000   1.0000   1.0000   1.0000   1.0000   1.0000
     1.0000   1.0000   1.0000   1.0000   1.0000   0.0000   0.0000   0.0000
     0.0000

          k = 0.1667 0.5774 0.0000 ( 14754 PWs)   bands (ev):

   -62.9175 -37.2509 -37.0458 -37.0404 -14.2053 -14.1018  -7.5122  -7.2170
    -6.0616  -5.2662  -4.4570  -4.0391  -2.4577   0.0166   0.9116   1.3372
     2.2593

     occupation numbers 
     1.0000   1.0000   1.0000   1.0000   1.0000   1.0000   1.0000   1.0000
     1.0000   1.0000   1.0000   1.0000   1.0000   0.0000   0.0000   0.0000
     0.0000

          k = 0.2500 0.4330 0.0000 ( 14746 PWs)   bands (ev):

   -62.9198 -37.2111 -37.0589 -37.0450 -14.3561 -14.1553  -7.2389  -7.0515
    -5.7039  -5.3768  -5.0269  -3.7750  -2.6637   0.0274   0.6992   0.9360
     2.4603

     occupation numbers 
     1.0000   1.0000   1.0000   1.0000   1.0000   1.0000   1.0000   1.0000
     1.0000   1.0000   1.0000   1.0000   1.0000   0.0000   0.0000   0.0000
     0.0000

          k = 0.2500 0.5292 0.0000 ( 14774 PWs)   bands (ev):

   -62.9162 -37.2159 -37.0977 -37.0378 -14.1347 -14.0557  -7.3976  -7.1152
    -5.9291  -5.3140  -5.1733  -4.1153  -2.3556  -0.1996   0.9752   1.1488
     2.5994

     occupation numbers 
     1.0000   1.0000   1.0000   1.0000   1.0000   1.0000   1.0000   1.0000
     1.0000   1.0000   1.0000   1.0000   1.0000   0.0000   0.0000   0.0000
     0.0000

          k = 0.3333 0.5774 0.0000 ( 14766 PWs)   bands (ev):

   -62.9149 -37.1864 -37.1435 -37.0352 -14.0549 -14.0141  -7.5449  -6.7243
    -6.1891  -5.6464  -5.0094  -4.3088  -2.1682  -0.4321   0.8742   1.3997
     2.7593

     occupation numbers 
     1.0000   1.0000   1.0000   1.0000   1.0000   1.0000   1.0000   1.0000
     1.0000   1.0000   1.0000   1.0000   1.0000   0.0000   0.0000   0.0000
     0.0000

     the Fermi energy is    -0.7528 ev

!    total energy              =    -184.86925786 Ry
     estimated scf accuracy    <          9.7E-10 Ry
     smearing contrib. (-TS)   =      -0.00000000 Ry
     internal energy E=F+TS    =    -184.86925786 Ry

     The total energy is F=E-TS. E is the sum of the following terms:
     one-electron contribution =   -1570.27919949 Ry
     hartree contribution      =     784.41118764 Ry
     xc contribution           =     -33.30690255 Ry
     ewald contribution        =     634.30565654 Ry

     convergence has been achieved in   9 iterations


     -----------------------------------------------
     Non-local corr. energy    =       0.30304619 Ry
     -----------------------------------------------


     Forces acting on atoms (cartesian axes, Ry/au):

     atom    1 type  2   force =     0.00000000    0.00000000    0.00000000
     atom    2 type  1   force =     0.00000000    0.00000000    0.00005925
     atom    3 type  1   force =    -0.00000000   -0.00000000   -0.00005925
     The non-local contrib.  to forces
     atom    1 type  2   force =    -0.00000000   -0.00000000    0.00000000
     atom    2 type  1   force =     0.00000000    0.00000000   -0.24690995
     atom    3 type  1   force =     0.00000000   -0.00000000    0.24690995
     The ionic contribution  to forces
     atom    1 type  2   force =     0.00000912   -0.00000527    0.00000000
     atom    2 type  1   force =    -0.00000456    0.00000263   38.30767726
     atom    3 type  1   force =    -0.00000456    0.00000263  -38.30767726
     The local contribution  to forces
     atom    1 type  2   force =     0.00014589   -0.00001203   -0.00000000
     atom    2 type  1   force =    -0.00000378    0.00000546  -38.06623788
     atom    3 type  1   force =    -0.00000378    0.00000546   38.06623788
     The core correction contribution to forces
     atom    1 type  2   force =    -0.00000316    0.00000026   -0.00000000
     atom    2 type  1   force =     0.00000050   -0.00000073    0.00554136
     atom    3 type  1   force =     0.00000050   -0.00000073   -0.00554136
     The Hubbard contrib.    to forces
     atom    1 type  2   force =     0.00000000    0.00000000    0.00000000
     atom    2 type  1   force =     0.00000000    0.00000000    0.00000000
     atom    3 type  1   force =     0.00000000    0.00000000    0.00000000
     The SCF correction term to forces
     atom    1 type  2   force =    -0.00000000    0.00000000    0.00000000
     atom    2 type  1   force =     0.00000000    0.00000000   -0.00001154
     atom    3 type  1   force =     0.00000000    0.00000000    0.00001154

     Total force =     0.000084     Total SCF correction =     0.000016
     SCF correction compared to forces is large: reduce conv_thr to get better values


     Computing stress (Cartesian axis) and pressure



     -----------------------------------------------
     Non-local corr. energy    =       0.30304619 Ry
     -----------------------------------------------

          total   stress  (Ry/bohr**3)                   (kbar)     P=       -0.69
  -0.00000489   0.00000000   0.00000000           -0.72        0.00        0.00
   0.00000000  -0.00000489   0.00000000            0.00       -0.72        0.00
   0.00000000   0.00000000  -0.00000438            0.00        0.00       -0.64

     kinetic stress (kbar)   3939.78     -0.00      0.00
                               -0.00   3939.78      0.00
                                0.00      0.00   3962.54

     local   stress (kbar)-154937.07     -0.00      0.00
                               -0.00-154937.07     -0.00
                                0.00     -0.00 151264.25

     nonloc. stress (kbar)   3118.41      0.00      0.00
                                0.00   3118.41      0.00
                                0.00      0.00   3126.45

     hartree stress (kbar)  75889.14      0.00     -0.00
                                0.00  75889.14     -0.00
                               -0.00     -0.00 -74252.82

     exc-cor stress (kbar)    -70.95      0.00      0.00
                                0.00    -70.95      0.00
                                0.00      0.00    -71.74

     corecor stress (kbar)   -876.51     -0.00      0.00
                               -0.00   -876.51      0.00
                                0.00      0.00   -877.58

     ewald   stress (kbar)  72927.94      0.00     -0.00
                                0.00  72927.94     -0.00
                               -0.00     -0.00 -83165.75

     hubbard stress (kbar)      0.00      0.00      0.00
                                0.00      0.00      0.00
                                0.00      0.00      0.00

     DFT-D   stress (kbar)      0.00      0.00      0.00
                                0.00      0.00      0.00
                                0.00      0.00      0.00

     XDM     stress (kbar)      0.00      0.00      0.00
                                0.00      0.00      0.00
                                0.00      0.00      0.00

     dft-nl  stress (kbar)      8.55     -0.00     -0.00
                               -0.00      8.55      0.00
                               -0.00      0.00     14.01

     TS-vdW  stress (kbar)      0.00      0.00      0.00
                                0.00      0.00      0.00
                                0.00      0.00      0.00

     MDB     stress (kbar)      0.00      0.00      0.00
                                0.00      0.00      0.00
                                0.00      0.00      0.00

     3D-RISM stress (kbar)      0.00      0.00      0.00
                                0.00      0.00      0.00
                                0.00      0.00      0.00


     Writing all to output data dir ./tmp/MoS2_1L_pbe_vdW_nsoc.save/

     init_run     :      9.64s CPU      9.71s WALL (       1 calls)
     electrons    :     13.60s CPU     12.11s WALL (       1 calls)
     forces       :      0.58s CPU      0.53s WALL (       1 calls)
     stress       :      2.42s CPU      2.51s WALL (       1 calls)

     Called by init_run:
     wfcinit      :      0.39s CPU      0.36s WALL (       1 calls)
     wfcinit:atom :      0.01s CPU      0.01s WALL (      19 calls)
     wfcinit:wfcr :      0.33s CPU      0.29s WALL (      19 calls)
     potinit      :      8.74s CPU      8.83s WALL (       1 calls)
     hinit0       :      0.34s CPU      0.35s WALL (       1 calls)

     Called by electrons:
     c_bands      :     11.21s CPU      9.49s WALL (       9 calls)
     sum_band     :      1.18s CPU      1.22s WALL (       9 calls)
     v_of_rho     :      9.81s CPU     10.04s WALL (      10 calls)
     v_h          :      0.01s CPU      0.01s WALL (      10 calls)
     v_xc         :     10.04s CPU     10.30s WALL (      12 calls)
     mix_rho      :      0.05s CPU      0.08s WALL (       9 calls)
     vdW_kernel   :      8.57s CPU      8.64s WALL (       1 calls)

     Called by c_bands:
     init_us_2    :      0.42s CPU      0.43s WALL (     399 calls)
     init_us_2:cp :      0.42s CPU      0.43s WALL (     399 calls)
     cegterg      :     10.34s CPU      8.59s WALL (     171 calls)

     Called by sum_band:
     sum_band:wei :      0.00s CPU      0.00s WALL (       9 calls)
     sum_band:loo :      1.15s CPU      1.19s WALL (       9 calls)
     sum_band:buf :      0.07s CPU      0.07s WALL (     171 calls)
     sum_band:ini :      0.19s CPU      0.19s WALL (     171 calls)

     Called by *egterg:
     cdiaghg      :      0.24s CPU      0.25s WALL (     651 calls)
     cegterg:over :      0.88s CPU      0.65s WALL (     480 calls)
     cegterg:upda :      0.58s CPU      0.38s WALL (     480 calls)
     cegterg:last :      0.98s CPU      0.59s WALL (     371 calls)
     h_psi        :      7.54s CPU      6.52s WALL (     670 calls)
     g_psi        :      0.06s CPU      0.07s WALL (     480 calls)

     Called by h_psi:
     h_psi:calbec :      1.53s CPU      0.91s WALL (     670 calls)
     vloc_psi     :      4.56s CPU      4.74s WALL (     670 calls)
     add_vuspsi   :      1.37s CPU      0.78s WALL (     670 calls)

     General routines
     calbec       :      1.83s CPU      1.13s WALL (     765 calls)
     fft          :      0.71s CPU      0.73s WALL (     768 calls)
     ffts         :      0.01s CPU      0.01s WALL (       9 calls)
     fftw         :      4.37s CPU      4.53s WALL (   18863 calls)

     Parallel routines

     PWSCF        :     26.38s CPU     25.06s WALL


   This run was terminated on:  10: 1:56  18Apr2024            

=------------------------------------------------------------------------------=
   JOB DONE.
=------------------------------------------------------------------------------=
