MPI startup(): Warning: I_MPI_PMI_LIBRARY will be ignored since the hydra process manager was found

     Program PROJWFC v.6.8 starts on 15Apr2024 at 14:16: 1 

     This program is part of the open-source Quantum ESPRESSO suite
     for quantum simulation of materials; please cite
         "P. Giannozzi et al., J. Phys.:Condens. Matter 21 395502 (2009);
         "P. Giannozzi et al., J. Phys.:Condens. Matter 29 465901 (2017);
         "P. Giannozzi et al., J. Chem. Phys. 152 154105 (2020);
          URL http://www.quantum-espresso.org", 
     in publications or presentations arising from this work. More details at
     http://www.quantum-espresso.org/quote

     Parallel version (MPI), running on     1 processors

     MPI processes distributed on     1 nodes
     1362339 MiB available memory on the printing compute node when the environment starts
 

     Reading xml data from directory:

     ./tmp/BULK-MoS2.save/

     IMPORTANT: XC functional enforced from input :
     Exchange-correlation= VDW-DF2-B86R
                           (   1   4  26   0   2   0   0)
     Any further DFT definition will be discarded
     Please, verify this is what you really want

 
     G-vector sticks info
     --------------------
     sticks:   dense  smooth     PW     G-vecs:    dense   smooth      PW
     Sum         673     673    199                56585    56585    9097
 
     Using Slab Decomposition
 


     %%%%%%%%%%%%%%%%%%%%%%%%%%%%%%%%%%%%%%%%%%%%%%%%%%%%%%%%%%%%%%%%%%%%%%%%
     %                                                                      %
     % You are using vdW-DF, which was implemented by the Thonhauser group. %
     % Please cite the following two papers that made this development      %
     % possible and the two reviews that describe the various versions:     %
     %                                                                      %
     %   T. Thonhauser et al., PRL 115, 136402 (2015).                      %
     %   T. Thonhauser et al., PRB 76, 125112 (2007).                       %
     %   K. Berland et al., Rep. Prog. Phys. 78, 066501 (2015).             %
     %   D.C. Langreth et al., J. Phys.: Condens. Matter 21, 084203 (2009). %
     %                                                                      %
     %                                                                      %
     % If you are calculating the stress with vdW-DF, please also cite:     %
     %                                                                      %
     %   R. Sabatini et al., J. Phys.: Condens. Matter 24, 424209 (2012).   %
     %                                                                      %
     %%%%%%%%%%%%%%%%%%%%%%%%%%%%%%%%%%%%%%%%%%%%%%%%%%%%%%%%%%%%%%%%%%%%%%%%



     Gaussian broadening (default values): ngauss,degauss=   0    0.000735


     Calling projwave .... 

     Subspace diagonalization in iterative solution of the eigenvalue problem:
     a serial algorithm will be used

 
  Problem Sizes 
  natomwfc =           36
  nbnd     =           26
  nkstot   =          244
  npwx     =         7164
  nkb      =          108
 

     Atomic states used for projection
     (read from pseudopotential files):

     state #   1: atom   1 (Mo ), wfc  1 (l=0 m= 1)
     state #   2: atom   1 (Mo ), wfc  2 (l=1 m= 1)
     state #   3: atom   1 (Mo ), wfc  2 (l=1 m= 2)
     state #   4: atom   1 (Mo ), wfc  2 (l=1 m= 3)
     state #   5: atom   1 (Mo ), wfc  3 (l=2 m= 1)
     state #   6: atom   1 (Mo ), wfc  3 (l=2 m= 2)
     state #   7: atom   1 (Mo ), wfc  3 (l=2 m= 3)
     state #   8: atom   1 (Mo ), wfc  3 (l=2 m= 4)
     state #   9: atom   1 (Mo ), wfc  3 (l=2 m= 5)
     state #  10: atom   1 (Mo ), wfc  4 (l=0 m= 1)
     state #  11: atom   2 (S  ), wfc  1 (l=0 m= 1)
     state #  12: atom   2 (S  ), wfc  2 (l=1 m= 1)
     state #  13: atom   2 (S  ), wfc  2 (l=1 m= 2)
     state #  14: atom   2 (S  ), wfc  2 (l=1 m= 3)
     state #  15: atom   3 (S  ), wfc  1 (l=0 m= 1)
     state #  16: atom   3 (S  ), wfc  2 (l=1 m= 1)
     state #  17: atom   3 (S  ), wfc  2 (l=1 m= 2)
     state #  18: atom   3 (S  ), wfc  2 (l=1 m= 3)
     state #  19: atom   4 (Mo ), wfc  1 (l=0 m= 1)
     state #  20: atom   4 (Mo ), wfc  2 (l=1 m= 1)
     state #  21: atom   4 (Mo ), wfc  2 (l=1 m= 2)
     state #  22: atom   4 (Mo ), wfc  2 (l=1 m= 3)
     state #  23: atom   4 (Mo ), wfc  3 (l=2 m= 1)
     state #  24: atom   4 (Mo ), wfc  3 (l=2 m= 2)
     state #  25: atom   4 (Mo ), wfc  3 (l=2 m= 3)
     state #  26: atom   4 (Mo ), wfc  3 (l=2 m= 4)
     state #  27: atom   4 (Mo ), wfc  3 (l=2 m= 5)
     state #  28: atom   4 (Mo ), wfc  4 (l=0 m= 1)
     state #  29: atom   5 (S  ), wfc  1 (l=0 m= 1)
     state #  30: atom   5 (S  ), wfc  2 (l=1 m= 1)
     state #  31: atom   5 (S  ), wfc  2 (l=1 m= 2)
     state #  32: atom   5 (S  ), wfc  2 (l=1 m= 3)
     state #  33: atom   6 (S  ), wfc  1 (l=0 m= 1)
     state #  34: atom   6 (S  ), wfc  2 (l=1 m= 1)
     state #  35: atom   6 (S  ), wfc  2 (l=1 m= 2)
     state #  36: atom   6 (S  ), wfc  2 (l=1 m= 3)

 k =   0.0000000000  0.0000000000  0.0000000000
==== e(   1) =   -50.40555 eV ==== 
     psi = 0.954*[#   1]+0.020*[#  10]+0.010*[#  12]+0.010*[#  16]+0.004*[#   5]
          +0.001*[#  11]+0.001*[#  15]
    |psi|^2 = 1.000
==== e(   2) =   -50.40533 eV ==== 
     psi = 0.954*[#  19]+0.020*[#  28]+0.010*[#  30]+0.010*[#  34]+0.004*[#  23]
          +0.001*[#  29]+0.001*[#  33]
    |psi|^2 = 1.000
==== e(   3) =   -24.58382 eV ==== 
     psi = 0.874*[#   2]+0.104*[#  20]+0.007*[#  11]+0.007*[#  15]+0.003*[#  12]
          +0.003*[#  16]
    |psi|^2 = 1.000
==== e(   4) =   -24.58352 eV ==== 
     psi = 0.873*[#  20]+0.104*[#   2]+0.006*[#  29]+0.006*[#  33]+0.004*[#  30]
          +0.004*[#  34]
    |psi|^2 = 1.000
==== e(   5) =   -24.33512 eV ==== 
     psi = 0.742*[#   4]+0.248*[#   3]+0.006*[#  22]+0.002*[#  21]
    |psi|^2 = 1.000
==== e(   6) =   -24.33489 eV ==== 
     psi = 0.742*[#  22]+0.248*[#  21]+0.006*[#   4]+0.002*[#   3]
    |psi|^2 = 1.000
==== e(   7) =   -24.33194 eV ==== 
     psi = 0.737*[#   3]+0.246*[#   4]+0.011*[#  21]+0.004*[#  22]
    |psi|^2 = 1.000
==== e(   8) =   -24.33171 eV ==== 
     psi = 0.737*[#  21]+0.246*[#  22]+0.011*[#   3]+0.004*[#   4]
    |psi|^2 = 1.000
==== e(   9) =    -3.93360 eV ==== 
     psi = 0.221*[#  10]+0.221*[#  28]+0.133*[#  11]+0.133*[#  15]+0.133*[#  33]
          +0.132*[#  29]+0.010*[#   1]+0.010*[#  19]+0.001*[#   5]+0.001*[#  23]
          
    |psi|^2 = 0.999
==== e(  10) =    -3.66127 eV ==== 
     psi = 0.206*[#  28]+0.206*[#  10]+0.135*[#  33]+0.135*[#  11]+0.135*[#  29]
          +0.135*[#  15]+0.011*[#   1]+0.011*[#  19]+0.006*[#  12]+0.006*[#  16]
          +0.006*[#  30]+0.006*[#  34]
    |psi|^2 = 0.999
==== e(  11) =    -2.73291 eV ==== 
     psi = 0.242*[#  15]+0.242*[#  11]+0.242*[#  29]+0.242*[#  33]+0.006*[#   2]
          +0.006*[#  20]+0.004*[#  12]+0.004*[#  16]+0.004*[#  30]+0.004*[#  34]
          
    |psi|^2 = 0.996
==== e(  12) =    -2.28827 eV ==== 
     psi = 0.245*[#  29]+0.244*[#  15]+0.244*[#  33]+0.244*[#  11]+0.008*[#   2]
          +0.008*[#  20]
    |psi|^2 = 0.996
==== e(  13) =     4.15130 eV ==== 
     psi = 0.156*[#  12]+0.156*[#  16]+0.156*[#  30]+0.156*[#  34]+0.137*[#   5]
          +0.137*[#  23]+0.013*[#  10]+0.013*[#  28]+0.012*[#   1]+0.012*[#  19]
          +0.011*[#  11]+0.011*[#  15]+0.011*[#  29]+0.011*[#  33]
    |psi|^2 = 0.991
==== e(  14) =     5.19148 eV ==== 
     psi = 0.206*[#   5]+0.206*[#  23]+0.107*[#  12]+0.107*[#  34]+0.107*[#  16]
          +0.107*[#  30]+0.023*[#  11]+0.023*[#  15]+0.023*[#  29]+0.023*[#  33]
          +0.016*[#  10]+0.016*[#  28]+0.011*[#   1]+0.011*[#  19]
    |psi|^2 = 0.987
==== e(  15) =     7.47245 eV ==== 
     psi = 0.244*[#  12]+0.244*[#  16]+0.244*[#  30]+0.244*[#  34]+0.004*[#   2]
          +0.004*[#  20]+0.003*[#  11]+0.003*[#  15]+0.003*[#  29]+0.003*[#  33]
          
    |psi|^2 = 0.994
==== e(  16) =     7.80181 eV ==== 
     psi = 0.258*[#   9]+0.248*[#  27]+0.086*[#   8]+0.083*[#  26]+0.060*[#  13]
          +0.060*[#  17]+0.058*[#  31]+0.058*[#  35]+0.020*[#  14]+0.020*[#  18]
          +0.019*[#  32]+0.019*[#  36]
    |psi|^2 = 0.991
==== e(  17) =     7.81388 eV ==== 
     psi = 0.260*[#  27]+0.250*[#   9]+0.087*[#  26]+0.083*[#   8]+0.059*[#  31]
          +0.059*[#  35]+0.057*[#  13]+0.057*[#  17]+0.020*[#  32]+0.020*[#  36]
          +0.019*[#  14]+0.019*[#  18]
    |psi|^2 = 0.991
==== e(  18) =     7.82424 eV ==== 
     psi = 0.258*[#   8]+0.249*[#  26]+0.086*[#   9]+0.083*[#  27]+0.060*[#  14]
          +0.060*[#  18]+0.058*[#  32]+0.058*[#  36]+0.020*[#  13]+0.020*[#  17]
          +0.019*[#  31]+0.019*[#  35]
    |psi|^2 = 0.991
==== e(  19) =     7.83689 eV ==== 
     psi = 0.260*[#  26]+0.251*[#   8]+0.087*[#  27]+0.084*[#   9]+0.059*[#  32]
          +0.059*[#  36]+0.057*[#  14]+0.057*[#  18]+0.020*[#  31]+0.020*[#  35]
          +0.019*[#  13]+0.019*[#  17]
    |psi|^2 = 0.991
==== e(  20) =     8.87701 eV ==== 
     psi = 0.213*[#   7]+0.211*[#  25]+0.080*[#  14]+0.080*[#  18]+0.079*[#  32]
          +0.079*[#  36]+0.071*[#   6]+0.070*[#  24]+0.027*[#  13]+0.027*[#  17]
          +0.026*[#  31]+0.026*[#  35]
    |psi|^2 = 0.988
==== e(  21) =     8.92164 eV ==== 
     psi = 0.218*[#  25]+0.215*[#   7]+0.077*[#  32]+0.077*[#  36]+0.076*[#  14]
          +0.076*[#  18]+0.073*[#  24]+0.072*[#   6]+0.026*[#  31]+0.026*[#  35]
          +0.025*[#  13]+0.025*[#  17]
    |psi|^2 = 0.987
==== e(  22) =     8.97547 eV ==== 
     psi = 0.213*[#   6]+0.211*[#  24]+0.080*[#  13]+0.080*[#  17]+0.079*[#  31]
          +0.079*[#  35]+0.071*[#   7]+0.070*[#  25]+0.027*[#  14]+0.027*[#  18]
          +0.026*[#  32]+0.026*[#  36]
    |psi|^2 = 0.988
==== e(  23) =     9.01961 eV ==== 
     psi = 0.218*[#  24]+0.216*[#   6]+0.077*[#  31]+0.077*[#  35]+0.076*[#  13]
          +0.076*[#  17]+0.073*[#  25]+0.072*[#   7]+0.026*[#  32]+0.026*[#  36]
          +0.025*[#  14]+0.025*[#  18]
    |psi|^2 = 0.987
==== e(  24) =     9.80158 eV ==== 
     psi = 0.325*[#   5]+0.325*[#  23]+0.078*[#  12]+0.078*[#  16]+0.078*[#  30]
          +0.077*[#  34]+0.003*[#  10]+0.003*[#  28]
    |psi|^2 = 0.968
==== e(  25) =     9.81355 eV ==== 
     psi = 0.244*[#  34]+0.244*[#  12]+0.244*[#  16]+0.244*[#  30]+0.004*[#   2]
          +0.004*[#  20]+0.001*[#  11]+0.001*[#  15]+0.001*[#  29]+0.001*[#  33]
          
    |psi|^2 = 0.988
==== e(  26) =    11.00549 eV ==== 
     psi = 0.284*[#   5]+0.284*[#  23]+0.091*[#  16]+0.091*[#  30]+0.091*[#  12]
          +0.091*[#  34]+0.014*[#  11]+0.014*[#  15]+0.014*[#  29]+0.014*[#  33]
          +0.003*[#  10]+0.003*[#  28]
    |psi|^2 = 0.993

 k =   0.0000000000  0.0000000000  0.0424444919
==== e(   1) =   -50.40555 eV ==== 
     psi = 0.954*[#   1]+0.020*[#  10]+0.010*[#  12]+0.010*[#  16]+0.004*[#   5]
          +0.001*[#  11]+0.001*[#  15]
    |psi|^2 = 1.000
==== e(   2) =   -50.40533 eV ==== 
     psi = 0.954*[#  19]+0.020*[#  28]+0.010*[#  30]+0.010*[#  34]+0.004*[#  23]
          +0.001*[#  29]+0.001*[#  33]
    |psi|^2 = 1.000
==== e(   3) =   -24.58380 eV ==== 
     psi = 0.876*[#   2]+0.102*[#  20]+0.007*[#  11]+0.007*[#  15]+0.003*[#  12]
          +0.003*[#  16]
    |psi|^2 = 1.000
==== e(   4) =   -24.58350 eV ==== 
     psi = 0.876*[#  20]+0.102*[#   2]+0.006*[#  29]+0.006*[#  33]+0.004*[#  30]
          +0.004*[#  34]
    |psi|^2 = 1.000
==== e(   5) =   -24.33512 eV ==== 
     psi = 0.747*[#   4]+0.250*[#   3]
    |psi|^2 = 1.000
==== e(   6) =   -24.33490 eV ==== 
     psi = 0.747*[#  22]+0.250*[#  21]
    |psi|^2 = 1.000
==== e(   7) =   -24.33195 eV ==== 
     psi = 0.745*[#   3]+0.249*[#   4]+0.003*[#  21]+0.001*[#  22]
    |psi|^2 = 1.000
==== e(   8) =   -24.33172 eV ==== 
     psi = 0.745*[#  21]+0.249*[#  22]+0.003*[#   3]+0.001*[#   4]
    |psi|^2 = 1.000
==== e(   9) =    -3.91962 eV ==== 
     psi = 0.220*[#  10]+0.220*[#  28]+0.133*[#  11]+0.133*[#  15]+0.133*[#  33]
          +0.133*[#  29]+0.010*[#   1]+0.010*[#  19]+0.001*[#   5]+0.001*[#  23]
          +0.001*[#  12]+0.001*[#  16]+0.001*[#  30]+0.001*[#  34]
    |psi|^2 = 0.999
==== e(  10) =    -3.68635 eV ==== 
     psi = 0.206*[#  28]+0.206*[#  10]+0.136*[#  33]+0.135*[#  11]+0.135*[#  29]
          +0.135*[#  15]+0.011*[#   1]+0.011*[#  19]+0.005*[#  12]+0.005*[#  16]
          +0.005*[#  30]+0.005*[#  34]
    |psi|^2 = 0.999
==== e(  11) =    -2.69693 eV ==== 
     psi = 0.242*[#  15]+0.242*[#  11]+0.242*[#  29]+0.241*[#  33]+0.007*[#   2]
          +0.007*[#  20]+0.004*[#  12]+0.004*[#  16]+0.004*[#  30]+0.004*[#  34]
          
    |psi|^2 = 0.996
==== e(  12) =    -2.31450 eV ==== 
     psi = 0.244*[#  29]+0.244*[#  15]+0.244*[#  33]+0.244*[#  11]+0.008*[#   2]
          +0.008*[#  20]+0.001*[#  12]+0.001*[#  16]+0.001*[#  30]+0.001*[#  34]
          
    |psi|^2 = 0.996
==== e(  13) =     4.20478 eV ==== 
     psi = 0.154*[#  12]+0.154*[#  16]+0.154*[#  30]+0.154*[#  34]+0.139*[#   5]
          +0.139*[#  23]+0.013*[#  10]+0.013*[#  28]+0.012*[#   1]+0.012*[#  19]
          +0.011*[#  11]+0.011*[#  15]+0.011*[#  29]+0.011*[#  33]
    |psi|^2 = 0.990
==== e(  14) =     5.09140 eV ==== 
     psi = 0.194*[#   5]+0.194*[#  23]+0.115*[#  12]+0.115*[#  34]+0.114*[#  16]
          +0.115*[#  30]+0.022*[#  11]+0.022*[#  15]+0.022*[#  29]+0.022*[#  33]
          +0.015*[#  10]+0.015*[#  28]+0.011*[#   1]+0.011*[#  19]
    |psi|^2 = 0.987
==== e(  15) =     7.60888 eV ==== 
     psi = 0.236*[#  12]+0.236*[#  16]+0.236*[#  30]+0.236*[#  34]+0.014*[#   5]
          +0.014*[#  23]+0.004*[#   2]+0.004*[#  20]+0.003*[#  11]+0.003*[#  15]
          +0.003*[#  29]+0.003*[#  33]
    |psi|^2 = 0.993
==== e(  16) =     7.80259 eV ==== 
     psi = 0.259*[#   9]+0.248*[#  27]+0.086*[#   8]+0.083*[#  26]+0.060*[#  13]
          +0.060*[#  17]+0.058*[#  31]+0.058*[#  35]+0.020*[#  14]+0.020*[#  18]
          +0.019*[#  32]+0.019*[#  36]
    |psi|^2 = 0.991
==== e(  17) =     7.81308 eV ==== 
     psi = 0.261*[#  27]+0.249*[#   9]+0.087*[#  26]+0.083*[#   8]+0.059*[#  31]
          +0.059*[#  35]+0.057*[#  13]+0.057*[#  17]+0.020*[#  32]+0.020*[#  36]
          +0.019*[#  14]+0.019*[#  18]
    |psi|^2 = 0.991
==== e(  18) =     7.82506 eV ==== 
     psi = 0.259*[#   8]+0.248*[#  26]+0.086*[#   9]+0.083*[#  27]+0.060*[#  14]
          +0.060*[#  18]+0.058*[#  32]+0.058*[#  36]+0.020*[#  13]+0.020*[#  17]
          +0.019*[#  31]+0.019*[#  35]
    |psi|^2 = 0.991
==== e(  19) =     7.83602 eV ==== 
     psi = 0.261*[#  26]+0.250*[#   8]+0.087*[#  27]+0.083*[#   9]+0.059*[#  32]
          +0.059*[#  36]+0.057*[#  14]+0.057*[#  18]+0.020*[#  31]+0.020*[#  35]
          +0.019*[#  13]+0.019*[#  17]
    |psi|^2 = 0.991
==== e(  20) =     8.88000 eV ==== 
     psi = 0.213*[#   7]+0.211*[#  25]+0.080*[#  14]+0.080*[#  18]+0.079*[#  32]
          +0.079*[#  36]+0.071*[#   6]+0.070*[#  24]+0.027*[#  13]+0.027*[#  17]
          +0.026*[#  31]+0.026*[#  35]
    |psi|^2 = 0.988
==== e(  21) =     8.91865 eV ==== 
     psi = 0.218*[#  25]+0.215*[#   7]+0.077*[#  32]+0.077*[#  36]+0.076*[#  14]
          +0.076*[#  18]+0.073*[#  24]+0.072*[#   6]+0.026*[#  31]+0.026*[#  35]
          +0.026*[#  13]+0.026*[#  17]
    |psi|^2 = 0.987
==== e(  22) =     8.97847 eV ==== 
     psi = 0.213*[#   6]+0.211*[#  24]+0.080*[#  13]+0.080*[#  17]+0.079*[#  31]
          +0.079*[#  35]+0.071*[#   7]+0.070*[#  25]+0.027*[#  14]+0.027*[#  18]
          +0.026*[#  32]+0.026*[#  36]
    |psi|^2 = 0.988
==== e(  23) =     9.01637 eV ==== 
     psi = 0.217*[#  24]+0.215*[#   6]+0.077*[#  31]+0.077*[#  35]+0.076*[#  13]
          +0.076*[#  17]+0.072*[#  25]+0.072*[#   7]+0.026*[#  32]+0.026*[#  36]
          +0.025*[#  14]+0.025*[#  18]
    |psi|^2 = 0.987
==== e(  24) =     9.36801 eV ==== 
     psi = 0.175*[#  12]+0.175*[#  16]+0.175*[#  30]+0.175*[#  34]+0.134*[#   5]
          +0.134*[#  23]+0.003*[#  10]+0.003*[#  28]+0.002*[#   2]+0.002*[#  20]
          
    |psi|^2 = 0.981
==== e(  25) =    10.18790 eV ==== 
     psi = 0.191*[#   5]+0.191*[#  23]+0.146*[#  12]+0.146*[#  34]+0.146*[#  16]
          +0.145*[#  30]+0.002*[#  11]+0.002*[#  15]+0.002*[#  29]+0.002*[#  33]
          +0.001*[#   2]+0.001*[#  20]
    |psi|^2 = 0.977
==== e(  26) =    10.97594 eV ==== 
     psi = 0.279*[#  23]+0.279*[#   5]+0.094*[#  16]+0.094*[#  30]+0.093*[#  12]
          +0.093*[#  34]+0.013*[#  11]+0.013*[#  15]+0.013*[#  29]+0.013*[#  33]
          +0.002*[#  10]+0.002*[#  28]
    |psi|^2 = 0.991

 k =   0.0000000000  0.0000000000  0.0848889837
==== e(   1) =   -50.40555 eV ==== 
     psi = 0.954*[#   1]+0.020*[#  10]+0.010*[#  12]+0.010*[#  16]+0.004*[#   5]
          +0.001*[#  11]+0.001*[#  15]
    |psi|^2 = 1.000
==== e(   2) =   -50.40533 eV ==== 
     psi = 0.954*[#  19]+0.020*[#  28]+0.010*[#  30]+0.010*[#  34]+0.004*[#  23]
          +0.001*[#  29]+0.001*[#  33]
    |psi|^2 = 1.000
==== e(   3) =   -24.58383 eV ==== 
     psi = 0.954*[#   2]+0.024*[#  20]+0.007*[#  11]+0.007*[#  15]+0.004*[#  12]
          +0.004*[#  16]
    |psi|^2 = 1.000
==== e(   4) =   -24.58358 eV ==== 
     psi = 0.954*[#  20]+0.024*[#   2]+0.007*[#  29]+0.007*[#  33]+0.004*[#  30]
          +0.004*[#  34]
    |psi|^2 = 1.000
==== e(   5) =   -24.33507 eV ==== 
     psi = 0.748*[#   4]+0.250*[#   3]
    |psi|^2 = 1.000
==== e(   6) =   -24.33485 eV ==== 
     psi = 0.748*[#  22]+0.250*[#  21]
    |psi|^2 = 1.000
==== e(   7) =   -24.33190 eV ==== 
     psi = 0.748*[#   3]+0.250*[#   4]
    |psi|^2 = 1.000
==== e(   8) =   -24.33167 eV ==== 
     psi = 0.748*[#  21]+0.250*[#  22]
    |psi|^2 = 1.000
==== e(   9) =    -3.87932 eV ==== 
     psi = 0.217*[#  10]+0.216*[#  28]+0.134*[#  11]+0.134*[#  15]+0.134*[#  33]
          +0.134*[#  29]+0.010*[#   1]+0.010*[#  19]+0.002*[#  12]+0.002*[#  16]
          +0.002*[#  30]+0.002*[#  34]+0.001*[#   5]+0.001*[#  23]
    |psi|^2 = 0.999
==== e(  10) =    -3.74735 eV ==== 
     psi = 0.209*[#  28]+0.208*[#  10]+0.136*[#  33]+0.136*[#  29]+0.136*[#  11]
          +0.136*[#  15]+0.010*[#   1]+0.011*[#  19]+0.004*[#  12]+0.004*[#  16]
          +0.004*[#  30]+0.004*[#  34]
    |psi|^2 = 0.999
==== e(  11) =    -2.60572 eV ==== 
     psi = 0.241*[#  11]+0.241*[#  15]+0.241*[#  29]+0.241*[#  33]+0.007*[#   2]
          +0.007*[#  20]+0.004*[#  12]+0.004*[#  16]+0.004*[#  30]+0.004*[#  34]
          +0.002*[#  10]+0.002*[#  28]
    |psi|^2 = 0.996
==== e(  12) =    -2.38770 eV ==== 
     psi = 0.243*[#  29]+0.243*[#  33]+0.242*[#  15]+0.242*[#  11]+0.007*[#   2]
          +0.007*[#  20]+0.002*[#  12]+0.002*[#  16]+0.002*[#  30]+0.002*[#  34]
          
    |psi|^2 = 0.996
==== e(  13) =     4.35783 eV ==== 
     psi = 0.149*[#  12]+0.149*[#  16]+0.149*[#  30]+0.149*[#  34]+0.145*[#   5]
          +0.144*[#  23]+0.014*[#  11]+0.014*[#  15]+0.014*[#  29]+0.014*[#  33]
          +0.013*[#  10]+0.013*[#  28]+0.012*[#   1]+0.012*[#  19]
    |psi|^2 = 0.989
==== e(  14) =     4.85567 eV ==== 
     psi = 0.173*[#  23]+0.172*[#   5]+0.128*[#  12]+0.128*[#  34]+0.128*[#  16]
          +0.128*[#  30]+0.020*[#  11]+0.020*[#  15]+0.020*[#  29]+0.020*[#  33]
          +0.015*[#  10]+0.015*[#  28]+0.011*[#   1]+0.011*[#  19]
    |psi|^2 = 0.987
==== e(  15) =     7.80475 eV ==== 
     psi = 0.264*[#   9]+0.243*[#  27]+0.088*[#   8]+0.081*[#  26]+0.061*[#  13]
          +0.061*[#  17]+0.056*[#  31]+0.057*[#  35]+0.020*[#  14]+0.020*[#  18]
          +0.019*[#  32]+0.019*[#  36]
    |psi|^2 = 0.991
==== e(  16) =     7.81069 eV ==== 
     psi = 0.265*[#  27]+0.244*[#   9]+0.088*[#  26]+0.081*[#   8]+0.061*[#  31]
          +0.061*[#  35]+0.056*[#  13]+0.056*[#  17]+0.020*[#  32]+0.020*[#  36]
          +0.019*[#  14]+0.019*[#  18]
    |psi|^2 = 0.991
==== e(  17) =     7.82733 eV ==== 
     psi = 0.263*[#   8]+0.244*[#  26]+0.088*[#   9]+0.081*[#  27]+0.061*[#  14]
          +0.061*[#  18]+0.057*[#  32]+0.057*[#  36]+0.020*[#  13]+0.020*[#  17]
          +0.019*[#  31]+0.019*[#  35]
    |psi|^2 = 0.991
==== e(  18) =     7.83365 eV ==== 
     psi = 0.264*[#  26]+0.245*[#   8]+0.088*[#  27]+0.082*[#   9]+0.060*[#  32]
          +0.060*[#  36]+0.056*[#  14]+0.056*[#  18]+0.020*[#  31]+0.020*[#  35]
          +0.019*[#  13]+0.019*[#  17]
    |psi|^2 = 0.991
==== e(  19) =     7.95402 eV ==== 
     psi = 0.220*[#  12]+0.220*[#  16]+0.220*[#  30]+0.220*[#  34]+0.043*[#   5]
          +0.043*[#  23]+0.004*[#   2]+0.004*[#  20]+0.003*[#  11]+0.003*[#  15]
          +0.003*[#  29]+0.003*[#  33]+0.002*[#  10]+0.002*[#  28]
    |psi|^2 = 0.991
==== e(  20) =     8.88798 eV ==== 
     psi = 0.188*[#  12]+0.188*[#  16]+0.188*[#  30]+0.188*[#  34]+0.102*[#   5]
          +0.102*[#  23]+0.003*[#   6]+0.003*[#  24]+0.003*[#   2]+0.003*[#  10]
          +0.003*[#  20]+0.003*[#  28]+0.001*[#   7]
    |psi|^2 = 0.985
==== e(  21) =     8.88817 eV ==== 
     psi = 0.215*[#   7]+0.211*[#  25]+0.080*[#  14]+0.080*[#  18]+0.078*[#  32]
          +0.078*[#  36]+0.072*[#   6]+0.070*[#  24]+0.026*[#  13]+0.026*[#  17]
          +0.026*[#  31]+0.026*[#  35]
    |psi|^2 = 0.988
==== e(  22) =     8.91049 eV ==== 
     psi = 0.218*[#  25]+0.213*[#   7]+0.078*[#  32]+0.078*[#  36]+0.077*[#  14]
          +0.077*[#  18]+0.073*[#  24]+0.071*[#   6]+0.026*[#  31]+0.026*[#  35]
          +0.026*[#  13]+0.026*[#  17]
    |psi|^2 = 0.987
==== e(  23) =     8.98668 eV ==== 
     psi = 0.215*[#   6]+0.211*[#  24]+0.079*[#  13]+0.079*[#  17]+0.078*[#  31]
          +0.078*[#  35]+0.072*[#   7]+0.070*[#  25]+0.026*[#  14]+0.026*[#  18]
          +0.026*[#  32]+0.026*[#  36]
    |psi|^2 = 0.988
==== e(  24) =     9.01050 eV ==== 
     psi = 0.214*[#  24]+0.210*[#   6]+0.077*[#  31]+0.077*[#  35]+0.076*[#  13]
          +0.076*[#  17]+0.071*[#  25]+0.070*[#   7]+0.026*[#  32]+0.026*[#  36]
          +0.025*[#  14]+0.025*[#  18]+0.003*[#  12]+0.003*[#  16]+0.003*[#  30]
          +0.003*[#  34]+0.002*[#   5]+0.002*[#  23]
    |psi|^2 = 0.987
==== e(  25) =    10.49575 eV ==== 
     psi = 0.221*[#   5]+0.221*[#  23]+0.129*[#  12]+0.129*[#  34]+0.129*[#  16]
          +0.128*[#  30]+0.005*[#  11]+0.005*[#  15]+0.005*[#  29]+0.005*[#  33]
          
    |psi|^2 = 0.979
==== e(  26) =    10.88505 eV ==== 
     psi = 0.267*[#  23]+0.267*[#   5]+0.102*[#  16]+0.102*[#  30]+0.101*[#  12]
          +0.101*[#  34]+0.011*[#  11]+0.011*[#  15]+0.011*[#  29]+0.011*[#  33]
          +0.001*[#  10]+0.001*[#  28]
    |psi|^2 = 0.987

 k =   0.0000000000  0.0000000000 -0.1273334756
==== e(   1) =   -50.40555 eV ==== 
     psi = 0.954*[#   1]+0.020*[#  10]+0.010*[#  12]+0.010*[#  16]+0.004*[#   5]
          +0.001*[#  11]+0.001*[#  15]
    |psi|^2 = 1.000
==== e(   2) =   -50.40533 eV ==== 
     psi = 0.954*[#  19]+0.020*[#  28]+0.010*[#  30]+0.010*[#  34]+0.004*[#  23]
          +0.001*[#  29]+0.001*[#  33]
    |psi|^2 = 1.000
==== e(   3) =   -24.58375 eV ==== 
     psi = 0.978*[#   2]+0.007*[#  11]+0.007*[#  15]+0.004*[#  12]+0.004*[#  16]
          
    |psi|^2 = 1.000
==== e(   4) =   -24.58352 eV ==== 
     psi = 0.978*[#  20]+0.007*[#  29]+0.007*[#  33]+0.004*[#  30]+0.004*[#  34]
          
    |psi|^2 = 1.000
==== e(   5) =   -24.33503 eV ==== 
     psi = 0.748*[#   4]+0.250*[#   3]
    |psi|^2 = 1.000
==== e(   6) =   -24.33481 eV ==== 
     psi = 0.748*[#  22]+0.250*[#  21]
    |psi|^2 = 1.000
==== e(   7) =   -24.33185 eV ==== 
     psi = 0.748*[#   3]+0.250*[#   4]
    |psi|^2 = 1.000
==== e(   8) =   -24.33163 eV ==== 
     psi = 0.748*[#  21]+0.250*[#  22]
    |psi|^2 = 1.000
==== e(   9) =    -3.81830 eV ==== 
     psi = 0.397*[#  10]+0.268*[#  11]+0.225*[#  15]+0.045*[#  33]+0.028*[#  28]
          +0.019*[#   1]+0.005*[#  16]+0.003*[#  12]+0.002*[#  29]+0.002*[#  30]
          +0.002*[#   5]+0.001*[#  19]
    |psi|^2 = 0.999
==== e(  10) =    -3.81806 eV ==== 
     psi = 0.397*[#  28]+0.268*[#  29]+0.225*[#  33]+0.045*[#  15]+0.028*[#  10]
          +0.019*[#  19]+0.005*[#  34]+0.003*[#  30]+0.002*[#  11]+0.002*[#  12]
          +0.002*[#  23]+0.001*[#   1]
    |psi|^2 = 0.999
==== e(  11) =    -2.49271 eV ==== 
     psi = 0.401*[#  11]+0.320*[#  15]+0.163*[#  33]+0.081*[#  29]+0.010*[#   2]
          +0.006*[#  30]+0.004*[#  34]+0.003*[#  20]+0.003*[#  16]+0.002*[#  28]
          
    |psi|^2 = 0.996
==== e(  12) =    -2.49234 eV ==== 
     psi = 0.402*[#  29]+0.320*[#  33]+0.163*[#  15]+0.081*[#  11]+0.010*[#  20]
          +0.006*[#  12]+0.004*[#  16]+0.003*[#   2]+0.003*[#  34]+0.002*[#  10]
          
    |psi|^2 = 0.996
==== e(  13) =     4.58806 eV ==== 
     psi = 0.309*[#   5]+0.271*[#  16]+0.250*[#  12]+0.031*[#  11]+0.030*[#  30]
          +0.028*[#  15]+0.028*[#  10]+0.022*[#   1]+0.009*[#  34]+0.005*[#  33]
          +0.002*[#  29]+0.002*[#  23]
    |psi|^2 = 0.988
==== e(  14) =     4.58825 eV ==== 
     psi = 0.309*[#  23]+0.271*[#  34]+0.250*[#  30]+0.031*[#  29]+0.030*[#  12]
          +0.028*[#  33]+0.028*[#  28]+0.022*[#  19]+0.009*[#  16]+0.005*[#  15]
          +0.002*[#  11]+0.002*[#   5]
    |psi|^2 = 0.988
==== e(  15) =     7.80761 eV ==== 
     psi = 0.508*[#   9]+0.169*[#   8]+0.117*[#  13]+0.117*[#  17]+0.039*[#  14]
          +0.039*[#  18]
    |psi|^2 = 0.991
==== e(  16) =     7.80785 eV ==== 
     psi = 0.508*[#  27]+0.169*[#  26]+0.117*[#  31]+0.117*[#  35]+0.039*[#  32]
          +0.039*[#  36]
    |psi|^2 = 0.991
==== e(  17) =     7.83035 eV ==== 
     psi = 0.509*[#   8]+0.170*[#   9]+0.117*[#  14]+0.117*[#  18]+0.039*[#  13]
          +0.039*[#  17]
    |psi|^2 = 0.991
==== e(  18) =     7.83058 eV ==== 
     psi = 0.509*[#  26]+0.170*[#  27]+0.117*[#  32]+0.117*[#  36]+0.039*[#  31]
          +0.039*[#  35]
    |psi|^2 = 0.991
==== e(  19) =     8.40382 eV ==== 
     psi = 0.410*[#  16]+0.384*[#  12]+0.144*[#  23]+0.027*[#  30]+0.006*[#   2]
          +0.005*[#  28]+0.004*[#  29]+0.003*[#  33]+0.003*[#   5]
    |psi|^2 = 0.988
==== e(  20) =     8.40391 eV ==== 
     psi = 0.410*[#  34]+0.383*[#  30]+0.145*[#   5]+0.027*[#  12]+0.006*[#  20]
          +0.005*[#  10]+0.004*[#  11]+0.003*[#  15]+0.003*[#  23]
    |psi|^2 = 0.988
==== e(  21) =     8.89922 eV ==== 
     psi = 0.428*[#   7]+0.156*[#  14]+0.156*[#  18]+0.143*[#   6]+0.052*[#  13]
          +0.052*[#  17]
    |psi|^2 = 0.988
==== e(  22) =     8.89945 eV ==== 
     psi = 0.428*[#  25]+0.156*[#  32]+0.156*[#  36]+0.143*[#  24]+0.052*[#  31]
          +0.052*[#  35]
    |psi|^2 = 0.988
==== e(  23) =     8.99788 eV ==== 
     psi = 0.428*[#   6]+0.156*[#  13]+0.156*[#  17]+0.143*[#   7]+0.052*[#  14]
          +0.052*[#  18]
    |psi|^2 = 0.987
==== e(  24) =     8.99811 eV ==== 
     psi = 0.428*[#  24]+0.156*[#  31]+0.156*[#  35]+0.143*[#  25]+0.052*[#  32]
          +0.052*[#  36]
    |psi|^2 = 0.987
==== e(  25) =    10.72678 eV ==== 
     psi = 0.293*[#   5]+0.223*[#  12]+0.204*[#  34]+0.201*[#  23]+0.023*[#  16]
          +0.012*[#  11]+0.009*[#  33]+0.006*[#  15]+0.004*[#  30]+0.003*[#  29]
          
    |psi|^2 = 0.982
==== e(  26) =    10.72748 eV ==== 
     psi = 0.293*[#  23]+0.223*[#  30]+0.204*[#  16]+0.201*[#   5]+0.023*[#  34]
          +0.012*[#  29]+0.009*[#  15]+0.006*[#  33]+0.004*[#  12]+0.004*[#  11]
          
    |psi|^2 = 0.982

 k =   0.0000000000  0.1283000598  0.0000000000
==== e(   1) =   -50.40053 eV ==== 
     psi = 0.959*[#   1]+0.014*[#  10]+0.010*[#  12]+0.010*[#  16]+0.003*[#   5]
          +0.001*[#  11]+0.001*[#  15]+0.001*[#  14]+0.001*[#  18]
    |psi|^2 = 1.000
==== e(   2) =   -50.40030 eV ==== 
     psi = 0.959*[#  19]+0.014*[#  28]+0.010*[#  30]+0.010*[#  34]+0.003*[#  23]
          +0.001*[#  29]+0.001*[#  33]+0.001*[#  32]+0.001*[#  36]
    |psi|^2 = 1.000
==== e(   3) =   -24.57397 eV ==== 
     psi = 0.879*[#   2]+0.099*[#  20]+0.006*[#  11]+0.006*[#  15]+0.003*[#  12]
          +0.003*[#  16]+0.001*[#  14]+0.001*[#  18]
    |psi|^2 = 1.000
==== e(   4) =   -24.57367 eV ==== 
     psi = 0.879*[#  20]+0.098*[#   2]+0.005*[#  29]+0.005*[#  33]+0.003*[#  30]
          +0.003*[#  34]+0.001*[#  32]+0.001*[#  36]
    |psi|^2 = 1.000
==== e(   5) =   -24.38404 eV ==== 
     psi = 0.973*[#   4]+0.017*[#  22]+0.003*[#  10]+0.001*[#   3]+0.001*[#  14]
          +0.001*[#  18]
    |psi|^2 = 1.000
==== e(   6) =   -24.38381 eV ==== 
     psi = 0.973*[#  22]+0.017*[#   4]+0.003*[#  28]+0.001*[#  21]+0.001*[#  32]
          +0.001*[#  36]
    |psi|^2 = 1.000
==== e(   7) =   -24.34394 eV ==== 
     psi = 0.957*[#   3]+0.039*[#  21]+0.001*[#   4]+0.001*[#  13]+0.001*[#  17]
          
    |psi|^2 = 1.000
==== e(   8) =   -24.34370 eV ==== 
     psi = 0.957*[#  21]+0.039*[#   3]+0.001*[#  22]+0.001*[#  31]+0.001*[#  35]
          
    |psi|^2 = 1.000
==== e(   9) =    -3.74381 eV ==== 
     psi = 0.205*[#  10]+0.204*[#  28]+0.138*[#  11]+0.138*[#  15]+0.138*[#  33]
          +0.138*[#  29]+0.008*[#   1]+0.008*[#  19]+0.002*[#  14]+0.002*[#  18]
          +0.002*[#  32]+0.002*[#  36]+0.002*[#   5]+0.002*[#  23]+0.001*[#   8]
          +0.001*[#  26]+0.001*[#   4]+0.001*[#  22]
    |psi|^2 = 0.999
==== e(  10) =    -3.47444 eV ==== 
     psi = 0.190*[#  28]+0.190*[#  10]+0.141*[#  33]+0.141*[#  11]+0.141*[#  29]
          +0.140*[#  15]+0.009*[#   1]+0.009*[#  19]+0.006*[#  12]+0.006*[#  16]
          +0.006*[#  30]+0.006*[#  34]+0.002*[#   8]+0.002*[#  14]+0.002*[#  18]
          +0.002*[#  26]+0.002*[#  32]+0.002*[#  36]+0.001*[#   4]+0.001*[#  22]
          
    |psi|^2 = 0.999
==== e(  11) =    -2.64215 eV ==== 
     psi = 0.231*[#  15]+0.231*[#  11]+0.231*[#  29]+0.231*[#  33]+0.016*[#   7]
          +0.016*[#  25]+0.006*[#   2]+0.006*[#  20]+0.005*[#  14]+0.005*[#  18]
          +0.005*[#  32]+0.005*[#  36]+0.003*[#  12]+0.003*[#  16]+0.003*[#  30]
          +0.003*[#  34]
    |psi|^2 = 0.997
==== e(  12) =    -2.22087 eV ==== 
     psi = 0.234*[#  29]+0.234*[#  15]+0.234*[#  33]+0.233*[#  11]+0.016*[#   7]
          +0.016*[#  25]+0.007*[#   2]+0.007*[#  20]+0.003*[#  14]+0.003*[#  18]
          +0.003*[#  32]+0.003*[#  36]
    |psi|^2 = 0.997
==== e(  13) =     4.36735 eV ==== 
     psi = 0.158*[#  12]+0.158*[#  16]+0.158*[#  30]+0.158*[#  34]+0.128*[#   5]
          +0.128*[#  23]+0.013*[#  10]+0.013*[#  28]+0.010*[#   1]+0.010*[#  19]
          +0.009*[#  11]+0.009*[#  15]+0.009*[#  29]+0.009*[#  33]+0.006*[#   8]
          +0.006*[#  26]+0.002*[#  14]+0.002*[#  18]+0.002*[#  32]+0.002*[#  36]
          +0.001*[#   4]+0.001*[#  22]
    |psi|^2 = 0.991
==== e(  14) =     5.40054 eV ==== 
     psi = 0.194*[#   5]+0.194*[#  23]+0.110*[#  12]+0.110*[#  34]+0.110*[#  16]
          +0.110*[#  30]+0.020*[#  11]+0.020*[#  15]+0.020*[#  29]+0.020*[#  33]
          +0.015*[#  10]+0.015*[#  28]+0.009*[#   1]+0.009*[#  19]+0.009*[#   8]
          +0.009*[#  26]+0.002*[#  14]+0.002*[#  18]+0.002*[#  32]+0.002*[#  36]
          +0.001*[#   4]+0.001*[#  22]
    |psi|^2 = 0.986
==== e(  15) =     7.14231 eV ==== 
     psi = 0.186*[#  12]+0.186*[#  16]+0.185*[#  30]+0.185*[#  34]+0.081*[#   7]
          +0.081*[#  25]+0.021*[#  14]+0.021*[#  18]+0.021*[#  32]+0.021*[#  36]
          +0.002*[#   2]+0.002*[#  20]
    |psi|^2 = 0.996
==== e(  16) =     7.41207 eV ==== 
     psi = 0.298*[#   8]+0.294*[#  26]+0.086*[#  14]+0.086*[#  18]+0.084*[#  32]
          +0.084*[#  36]+0.012*[#  10]+0.012*[#  28]+0.006*[#  11]+0.006*[#  15]
          +0.006*[#  29]+0.006*[#  33]+0.001*[#   1]+0.001*[#  12]+0.001*[#  16]
          +0.001*[#  19]+0.001*[#  30]+0.001*[#  34]
    |psi|^2 = 0.990
==== e(  17) =     7.44129 eV ==== 
     psi = 0.304*[#  26]+0.299*[#   8]+0.083*[#  32]+0.083*[#  36]+0.081*[#  14]
          +0.081*[#  18]+0.010*[#  28]+0.010*[#  10]+0.005*[#  11]+0.005*[#  15]
          +0.006*[#  29]+0.006*[#  33]+0.002*[#   5]+0.002*[#  23]+0.001*[#  12]
          +0.001*[#  16]+0.001*[#  30]+0.002*[#  34]+0.001*[#   1]+0.001*[#  19]
          
    |psi|^2 = 0.988
==== e(  18) =     7.99937 eV ==== 
     psi = 0.322*[#   9]+0.315*[#  27]+0.089*[#  13]+0.089*[#  17]+0.087*[#  35]
          +0.087*[#  31]
    |psi|^2 = 0.990
==== e(  19) =     8.02112 eV ==== 
     psi = 0.327*[#  27]+0.320*[#   9]+0.086*[#  35]+0.086*[#  31]+0.085*[#  13]
          +0.084*[#  17]
    |psi|^2 = 0.990
==== e(  20) =     8.25282 eV ==== 
     psi = 0.219*[#   7]+0.219*[#  25]+0.099*[#  14]+0.099*[#  18]+0.099*[#  32]
          +0.099*[#  36]+0.034*[#  12]+0.034*[#  16]+0.034*[#  30]+0.034*[#  34]
          +0.002*[#   6]+0.002*[#  24]+0.002*[#  11]+0.002*[#  15]+0.002*[#  29]
          +0.002*[#  33]
    |psi|^2 = 0.985
==== e(  21) =     8.65897 eV ==== 
     psi = 0.274*[#   6]+0.271*[#  24]+0.109*[#  13]+0.109*[#  17]+0.108*[#  31]
          +0.108*[#  35]+0.002*[#   7]+0.002*[#  25]
    |psi|^2 = 0.989
==== e(  22) =     8.70579 eV ==== 
     psi = 0.281*[#  24]+0.278*[#   6]+0.105*[#  31]+0.105*[#  35]+0.104*[#  13]
          +0.104*[#  17]+0.001*[#   7]+0.001*[#  25]
    |psi|^2 = 0.988
==== e(  23) =     9.04193 eV ==== 
     psi = 0.148*[#   7]+0.148*[#  25]+0.111*[#  14]+0.111*[#  18]+0.111*[#  32]
          +0.111*[#  36]+0.056*[#  12]+0.056*[#  16]+0.056*[#  30]+0.056*[#  34]
          +0.003*[#   6]+0.003*[#  24]+0.002*[#   2]+0.002*[#  20]+0.001*[#  11]
          +0.001*[#  13]+0.001*[#  15]+0.001*[#  17]+0.001*[#  29]+0.001*[#  31]
          +0.001*[#  33]+0.001*[#  35]
    |psi|^2 = 0.980
==== e(  24) =     9.82189 eV ==== 
     psi = 0.327*[#   5]+0.327*[#  23]+0.069*[#  12]+0.069*[#  16]+0.069*[#  30]
          +0.069*[#  34]+0.007*[#   8]+0.007*[#  26]+0.003*[#  14]+0.003*[#  18]
          +0.003*[#  32]+0.003*[#  36]+0.003*[#  10]+0.003*[#  28]+0.001*[#  11]
          +0.001*[#  15]+0.001*[#  29]+0.001*[#  33]
    |psi|^2 = 0.970
==== e(  25) =    10.00777 eV ==== 
     psi = 0.194*[#  12]+0.194*[#  34]+0.194*[#  16]+0.194*[#  30]+0.047*[#  14]
          +0.047*[#  18]+0.047*[#  32]+0.047*[#  36]+0.004*[#   7]+0.004*[#  25]
          +0.004*[#   2]+0.004*[#  20]+0.002*[#  11]+0.002*[#  15]+0.002*[#  29]
          +0.002*[#  33]
    |psi|^2 = 0.989
==== e(  26) =    10.65786 eV ==== 
     psi = 0.251*[#  23]+0.251*[#   5]+0.070*[#  16]+0.070*[#  30]+0.070*[#  12]
          +0.070*[#  34]+0.035*[#   8]+0.035*[#  26]+0.017*[#  14]+0.017*[#  18]
          +0.017*[#  32]+0.017*[#  36]+0.015*[#  11]+0.015*[#  15]+0.015*[#  29]
          +0.015*[#  33]+0.002*[#  10]+0.002*[#  28]+0.001*[#   1]+0.001*[#  19]
          
    |psi|^2 = 0.991

 k =   0.0000000000  0.1283000598  0.0424444919
==== e(   1) =   -50.40053 eV ==== 
     psi = 0.959*[#   1]+0.014*[#  10]+0.010*[#  12]+0.010*[#  16]+0.003*[#   5]
          +0.001*[#  11]+0.001*[#  15]+0.001*[#  14]+0.001*[#  18]
    |psi|^2 = 1.000
==== e(   2) =   -50.40030 eV ==== 
     psi = 0.959*[#  19]+0.014*[#  28]+0.010*[#  30]+0.010*[#  34]+0.003*[#  23]
          +0.001*[#  29]+0.001*[#  33]+0.001*[#  32]+0.001*[#  36]
    |psi|^2 = 1.000
==== e(   3) =   -24.57399 eV ==== 
     psi = 0.905*[#   2]+0.073*[#  20]+0.006*[#  11]+0.006*[#  15]+0.003*[#  12]
          +0.003*[#  16]+0.001*[#  14]+0.001*[#  18]
    |psi|^2 = 1.000
==== e(   4) =   -24.57372 eV ==== 
     psi = 0.905*[#  20]+0.072*[#   2]+0.006*[#  29]+0.006*[#  33]+0.003*[#  30]
          +0.003*[#  34]+0.001*[#  32]+0.001*[#  36]
    |psi|^2 = 1.000
==== e(   5) =   -24.38404 eV ==== 
     psi = 0.980*[#   4]+0.010*[#  22]+0.003*[#  10]+0.001*[#   3]+0.001*[#  14]
          +0.001*[#  18]
    |psi|^2 = 1.000
==== e(   6) =   -24.38381 eV ==== 
     psi = 0.980*[#  22]+0.010*[#   4]+0.003*[#  28]+0.001*[#  21]+0.001*[#  32]
          +0.001*[#  36]
    |psi|^2 = 1.000
==== e(   7) =   -24.34392 eV ==== 
     psi = 0.982*[#   3]+0.013*[#  21]+0.001*[#   4]+0.001*[#  13]+0.001*[#  17]
          
    |psi|^2 = 1.000
==== e(   8) =   -24.34370 eV ==== 
     psi = 0.982*[#  21]+0.013*[#   3]+0.001*[#  22]+0.001*[#  31]+0.001*[#  35]
          
    |psi|^2 = 1.000
==== e(   9) =    -3.73015 eV ==== 
     psi = 0.204*[#  10]+0.203*[#  28]+0.139*[#  11]+0.138*[#  15]+0.138*[#  33]
          +0.138*[#  29]+0.008*[#   1]+0.008*[#  19]+0.002*[#  14]+0.002*[#  18]
          +0.002*[#  32]+0.002*[#  36]+0.002*[#   5]+0.001*[#   8]+0.002*[#  23]
          +0.001*[#  26]+0.001*[#   4]+0.001*[#  12]+0.001*[#  16]+0.001*[#  22]
          +0.001*[#  30]+0.001*[#  34]
    |psi|^2 = 0.999
==== e(  10) =    -3.49972 eV ==== 
     psi = 0.190*[#  28]+0.190*[#  10]+0.141*[#  33]+0.141*[#  11]+0.141*[#  29]
          +0.141*[#  15]+0.009*[#   1]+0.009*[#  19]+0.006*[#  12]+0.006*[#  16]
          +0.006*[#  30]+0.006*[#  34]+0.002*[#   8]+0.002*[#  14]+0.002*[#  18]
          +0.002*[#  26]+0.002*[#  32]+0.002*[#  36]+0.001*[#   4]+0.001*[#  22]
          
    |psi|^2 = 0.999
==== e(  11) =    -2.60720 eV ==== 
     psi = 0.230*[#  15]+0.230*[#  11]+0.230*[#  29]+0.230*[#  33]+0.016*[#   7]
          +0.016*[#  25]+0.006*[#   2]+0.006*[#  20]+0.004*[#  14]+0.004*[#  18]
          +0.004*[#  32]+0.004*[#  36]+0.003*[#  12]+0.003*[#  16]+0.003*[#  30]
          +0.003*[#  34]
    |psi|^2 = 0.997
==== e(  12) =    -2.24526 eV ==== 
     psi = 0.233*[#  29]+0.233*[#  15]+0.233*[#  33]+0.233*[#  11]+0.016*[#   7]
          +0.016*[#  25]+0.007*[#   2]+0.007*[#  20]+0.003*[#  14]+0.003*[#  18]
          +0.003*[#  32]+0.003*[#  36]+0.001*[#  12]+0.001*[#  16]+0.001*[#  30]
          +0.001*[#  34]
    |psi|^2 = 0.997
==== e(  13) =     4.41847 eV ==== 
     psi = 0.156*[#  12]+0.156*[#  16]+0.156*[#  30]+0.156*[#  34]+0.130*[#   5]
          +0.130*[#  23]+0.013*[#  10]+0.013*[#  28]+0.010*[#  11]+0.010*[#  15]
          +0.010*[#  29]+0.010*[#  33]+0.010*[#   1]+0.010*[#  19]+0.006*[#   8]
          +0.006*[#  26]+0.002*[#  14]+0.002*[#  36]+0.002*[#  18]+0.002*[#  32]
          +0.001*[#   4]+0.001*[#  22]
    |psi|^2 = 0.991
==== e(  14) =     5.29449 eV ==== 
     psi = 0.181*[#   5]+0.181*[#  23]+0.118*[#  12]+0.118*[#  34]+0.118*[#  16]
          +0.118*[#  30]+0.019*[#  11]+0.019*[#  33]+0.019*[#  15]+0.019*[#  29]
          +0.015*[#  10]+0.015*[#  28]+0.009*[#   1]+0.009*[#  19]+0.008*[#   8]
          +0.008*[#  26]+0.003*[#  18]+0.003*[#  32]+0.002*[#  14]+0.002*[#  36]
          +0.001*[#   4]+0.001*[#  22]
    |psi|^2 = 0.987
==== e(  15) =     7.26023 eV ==== 
     psi = 0.169*[#  12]+0.169*[#  34]+0.169*[#  16]+0.169*[#  30]+0.084*[#   7]
          +0.084*[#  25]+0.035*[#  14]+0.035*[#  36]+0.017*[#  18]+0.017*[#  32]
          +0.011*[#   5]+0.011*[#  23]+0.010*[#   8]+0.010*[#  26]+0.002*[#   2]
          +0.002*[#  20]
    |psi|^2 = 0.995
==== e(  16) =     7.41544 eV ==== 
     psi = 0.296*[#   8]+0.291*[#  26]+0.085*[#  18]+0.084*[#  14]+0.084*[#  32]
          +0.082*[#  36]+0.012*[#  10]+0.012*[#  28]+0.006*[#  11]+0.006*[#  33]
          +0.006*[#  15]+0.006*[#  29]+0.005*[#  16]+0.005*[#  30]+0.001*[#   1]
          +0.001*[#   5]+0.001*[#  19]+0.001*[#  23]
    |psi|^2 = 0.989
==== e(  17) =     7.44159 eV ==== 
     psi = 0.298*[#  26]+0.292*[#   8]+0.092*[#  32]+0.091*[#  18]+0.072*[#  36]
          +0.070*[#  14]+0.011*[#  28]+0.011*[#  10]+0.006*[#  29]+0.006*[#  15]
          +0.006*[#  12]+0.006*[#  34]+0.005*[#  33]+0.005*[#  11]+0.003*[#   5]
          +0.003*[#  23]+0.002*[#  16]+0.002*[#  30]+0.002*[#   7]+0.002*[#  25]
          +0.001*[#   1]+0.001*[#  19]
    |psi|^2 = 0.988
==== e(  18) =     8.00073 eV ==== 
     psi = 0.323*[#   9]+0.315*[#  27]+0.089*[#  13]+0.088*[#  17]+0.087*[#  35]
          +0.086*[#  31]
    |psi|^2 = 0.990
==== e(  19) =     8.01957 eV ==== 
     psi = 0.327*[#  27]+0.319*[#   9]+0.087*[#  31]+0.087*[#  35]+0.085*[#  17]
          +0.084*[#  13]
    |psi|^2 = 0.990
==== e(  20) =     8.21558 eV ==== 
     psi = 0.211*[#   7]+0.211*[#  25]+0.094*[#  14]+0.094*[#  36]+0.090*[#  18]
          +0.090*[#  32]+0.042*[#  16]+0.042*[#  30]+0.042*[#  12]+0.042*[#  34]
          +0.006*[#   5]+0.006*[#  23]+0.002*[#  11]+0.002*[#  33]+0.002*[#   6]
          +0.002*[#  24]+0.001*[#  15]+0.001*[#  29]
    |psi|^2 = 0.985
==== e(  21) =     8.66204 eV ==== 
     psi = 0.275*[#   6]+0.272*[#  24]+0.109*[#  13]+0.109*[#  17]+0.108*[#  35]
          +0.108*[#  31]+0.001*[#   7]+0.001*[#  25]
    |psi|^2 = 0.989
==== e(  22) =     8.70258 eV ==== 
     psi = 0.281*[#  24]+0.278*[#   6]+0.106*[#  31]+0.106*[#  35]+0.105*[#  17]
          +0.104*[#  13]
    |psi|^2 = 0.988
==== e(  23) =     9.05269 eV ==== 
     psi = 0.141*[#   7]+0.142*[#  25]+0.109*[#  14]+0.109*[#  36]+0.108*[#  18]
          +0.108*[#  32]+0.060*[#  16]+0.060*[#  30]+0.059*[#  12]+0.059*[#  34]
          +0.004*[#   5]+0.004*[#  23]+0.002*[#   6]+0.002*[#  24]+0.002*[#   2]
          +0.002*[#  20]+0.001*[#  11]+0.001*[#  33]+0.001*[#  13]
    |psi|^2 = 0.980
==== e(  24) =     9.61714 eV ==== 
     psi = 0.176*[#   5]+0.175*[#  23]+0.118*[#  12]+0.118*[#  34]+0.113*[#  16]
          +0.113*[#  30]+0.032*[#  14]+0.032*[#  36]+0.030*[#  18]+0.030*[#  32]
          +0.013*[#   7]+0.013*[#  25]+0.002*[#   8]+0.002*[#  10]+0.002*[#  26]
          +0.002*[#  28]+0.002*[#   2]+0.002*[#  20]
    |psi|^2 = 0.977
==== e(  25) =    10.18428 eV ==== 
     psi = 0.144*[#   5]+0.144*[#  23]+0.141*[#  16]+0.141*[#  30]+0.136*[#  12]
          +0.136*[#  34]+0.030*[#  18]+0.030*[#  32]+0.022*[#  14]+0.022*[#  36]
          +0.007*[#   8]+0.007*[#  26]+0.005*[#  15]+0.005*[#  29]+0.003*[#  11]
          +0.003*[#  33]+0.002*[#   2]+0.002*[#  20]
    |psi|^2 = 0.983
==== e(  26) =    10.64362 eV ==== 
     psi = 0.249*[#  23]+0.249*[#   5]+0.074*[#  12]+0.074*[#  34]+0.072*[#  16]
          +0.072*[#  30]+0.033*[#   8]+0.033*[#  26]+0.019*[#  14]+0.019*[#  36]
          +0.015*[#  11]+0.015*[#  18]+0.015*[#  32]+0.015*[#  33]+0.015*[#  15]
          +0.015*[#  29]+0.002*[#  10]+0.002*[#  28]+0.001*[#   1]+0.001*[#  19]
          
    |psi|^2 = 0.990

 k =   0.0000000000  0.1283000598  0.0848889837
==== e(   1) =   -50.40053 eV ==== 
     psi = 0.959*[#   1]+0.014*[#  10]+0.010*[#  12]+0.010*[#  16]+0.003*[#   5]
          +0.001*[#  11]+0.001*[#  15]+0.001*[#  14]+0.001*[#  18]
    |psi|^2 = 1.000
==== e(   2) =   -50.40031 eV ==== 
     psi = 0.959*[#  19]+0.014*[#  28]+0.010*[#  30]+0.010*[#  34]+0.003*[#  23]
          +0.001*[#  29]+0.001*[#  33]+0.001*[#  32]+0.001*[#  36]
    |psi|^2 = 1.000
==== e(   3) =   -24.57404 eV ==== 
     psi = 0.953*[#   2]+0.024*[#  20]+0.006*[#  11]+0.006*[#  15]+0.003*[#  12]
          +0.003*[#  16]+0.001*[#  14]+0.001*[#  18]
    |psi|^2 = 1.000
==== e(   4) =   -24.57379 eV ==== 
     psi = 0.953*[#  20]+0.024*[#   2]+0.006*[#  29]+0.006*[#  33]+0.003*[#  30]
          +0.003*[#  34]+0.001*[#  32]+0.001*[#  36]
    |psi|^2 = 1.000
==== e(   5) =   -24.38406 eV ==== 
     psi = 0.988*[#   4]+0.003*[#  10]+0.002*[#  22]+0.001*[#   3]+0.001*[#  14]
          +0.001*[#  18]
    |psi|^2 = 1.000
==== e(   6) =   -24.38383 eV ==== 
     psi = 0.988*[#  22]+0.003*[#  28]+0.002*[#   4]+0.001*[#  21]+0.001*[#  32]
          +0.001*[#  36]
    |psi|^2 = 1.000
==== e(   7) =   -24.34393 eV ==== 
     psi = 0.987*[#   3]+0.008*[#  21]+0.001*[#   4]+0.001*[#  13]+0.001*[#  17]
          
    |psi|^2 = 1.000
==== e(   8) =   -24.34370 eV ==== 
     psi = 0.987*[#  21]+0.008*[#   3]+0.001*[#  22]+0.001*[#  31]+0.001*[#  35]
          
    |psi|^2 = 1.000
==== e(   9) =    -3.69071 eV ==== 
     psi = 0.200*[#  10]+0.200*[#  28]+0.140*[#  11]+0.139*[#  15]+0.139*[#  33]
          +0.139*[#  29]+0.008*[#   1]+0.008*[#  19]+0.002*[#  14]+0.002*[#  18]
          +0.002*[#  32]+0.002*[#  36]+0.002*[#  12]+0.002*[#  16]+0.002*[#  30]
          +0.002*[#  34]+0.002*[#   8]+0.001*[#  26]+0.001*[#   4]+0.001*[#   5]
          +0.001*[#  22]+0.001*[#  23]
    |psi|^2 = 0.999
==== e(  10) =    -3.56063 eV ==== 
     psi = 0.192*[#  28]+0.191*[#  10]+0.142*[#  33]+0.141*[#  29]+0.141*[#  11]
          +0.141*[#  15]+0.009*[#   1]+0.009*[#  19]+0.004*[#  12]+0.004*[#  16]
          +0.004*[#  30]+0.004*[#  34]+0.002*[#  14]+0.002*[#  18]+0.002*[#  32]
          +0.002*[#  36]+0.002*[#   8]+0.002*[#  26]+0.001*[#   4]+0.001*[#  22]
          
    |psi|^2 = 0.999
==== e(  11) =    -2.51952 eV ==== 
     psi = 0.230*[#  11]+0.230*[#  15]+0.230*[#  29]+0.230*[#  33]+0.016*[#   7]
          +0.016*[#  25]+0.007*[#   2]+0.007*[#  20]+0.004*[#  14]+0.004*[#  18]
          +0.004*[#  32]+0.004*[#  36]+0.003*[#  12]+0.003*[#  16]+0.003*[#  30]
          +0.003*[#  34]+0.002*[#  10]+0.002*[#  28]
    |psi|^2 = 0.997
==== e(  12) =    -2.31356 eV ==== 
     psi = 0.232*[#  29]+0.232*[#  15]+0.232*[#  33]+0.231*[#  11]+0.016*[#   7]
          +0.016*[#  25]+0.007*[#   2]+0.007*[#  20]+0.003*[#  14]+0.003*[#  18]
          +0.003*[#  32]+0.003*[#  36]+0.002*[#  12]+0.002*[#  16]+0.002*[#  30]
          +0.002*[#  34]
    |psi|^2 = 0.997
==== e(  13) =     4.56543 eV ==== 
     psi = 0.151*[#  16]+0.151*[#  12]+0.151*[#  30]+0.151*[#  34]+0.135*[#   5]
          +0.135*[#  23]+0.013*[#  10]+0.013*[#  28]+0.012*[#  11]+0.012*[#  15]
          +0.012*[#  29]+0.012*[#  33]+0.009*[#   1]+0.009*[#  19]+0.006*[#   8]
          +0.006*[#  26]+0.002*[#  14]+0.002*[#  36]+0.002*[#  18]+0.002*[#  32]
          +0.001*[#   4]+0.001*[#  22]
    |psi|^2 = 0.990
==== e(  14) =     5.05358 eV ==== 
     psi = 0.160*[#  23]+0.160*[#   5]+0.132*[#  12]+0.132*[#  34]+0.132*[#  16]
          +0.132*[#  30]+0.017*[#  11]+0.017*[#  33]+0.017*[#  15]+0.017*[#  29]
          +0.014*[#  10]+0.014*[#  28]+0.009*[#   1]+0.009*[#  19]+0.007*[#   8]
          +0.007*[#  26]+0.003*[#  18]+0.003*[#  32]+0.002*[#  14]+0.002*[#  36]
          +0.002*[#   7]+0.002*[#  25]+0.001*[#   4]+0.001*[#  22]
    |psi|^2 = 0.988
==== e(  15) =     7.40929 eV ==== 
     psi = 0.282*[#   8]+0.275*[#  26]+0.089*[#  14]+0.087*[#  36]+0.077*[#  18]
          +0.075*[#  32]+0.017*[#  12]+0.017*[#  34]+0.009*[#  16]+0.009*[#  30]
          +0.009*[#  10]+0.009*[#  28]+0.008*[#   7]+0.008*[#  25]+0.004*[#  11]
          +0.004*[#  33]+0.004*[#  15]+0.003*[#  29]
    |psi|^2 = 0.989
==== e(  16) =     7.42646 eV ==== 
     psi = 0.299*[#  26]+0.292*[#   8]+0.094*[#  36]+0.091*[#  14]+0.072*[#  32]
          +0.071*[#  18]+0.010*[#  16]+0.010*[#  30]+0.010*[#  28]+0.009*[#  10]
          +0.005*[#  33]+0.005*[#  11]+0.005*[#  15]+0.005*[#  29]+0.003*[#   7]
          +0.002*[#  25]+0.001*[#   1]+0.001*[#  19]
    |psi|^2 = 0.988
==== e(  17) =     7.56144 eV ==== 
     psi = 0.130*[#  12]+0.130*[#  34]+0.128*[#  16]+0.128*[#  30]+0.096*[#   7]
          +0.095*[#  25]+0.056*[#  18]+0.056*[#  32]+0.031*[#   5]+0.031*[#  23]
          +0.025*[#  26]+0.025*[#   8]+0.016*[#  14]+0.015*[#  36]+0.005*[#  10]
          +0.005*[#  15]+0.005*[#  28]+0.005*[#  29]+0.003*[#  11]+0.003*[#  33]
          +0.001*[#   2]+0.001*[#  20]
    |psi|^2 = 0.993
==== e(  18) =     8.00445 eV ==== 
     psi = 0.326*[#   9]+0.312*[#  27]+0.090*[#  13]+0.088*[#  17]+0.086*[#  35]
          +0.085*[#  31]
    |psi|^2 = 0.990
==== e(  19) =     8.01539 eV ==== 
     psi = 0.329*[#  27]+0.315*[#   9]+0.088*[#  31]+0.088*[#  35]+0.085*[#  17]
          +0.084*[#  13]
    |psi|^2 = 0.990
==== e(  20) =     8.08969 eV ==== 
     psi = 0.182*[#   7]+0.182*[#  25]+0.078*[#  14]+0.078*[#  36]+0.069*[#  18]
          +0.069*[#  32]+0.067*[#  16]+0.068*[#  30]+0.067*[#  12]+0.067*[#  34]
          +0.021*[#   5]+0.021*[#  23]+0.003*[#  11]+0.003*[#  33]+0.001*[#  10]
          +0.001*[#  28]+0.001*[#  15]+0.001*[#  29]
    |psi|^2 = 0.987
==== e(  21) =     8.67046 eV ==== 
     psi = 0.278*[#   6]+0.273*[#  24]+0.110*[#  13]+0.109*[#  17]+0.107*[#  35]
          +0.107*[#  31]
    |psi|^2 = 0.989
==== e(  22) =     8.69386 eV ==== 
     psi = 0.281*[#  24]+0.276*[#   6]+0.107*[#  31]+0.107*[#  35]+0.105*[#  17]
          +0.105*[#  13]
    |psi|^2 = 0.988
==== e(  23) =     9.09317 eV ==== 
     psi = 0.121*[#   7]+0.121*[#  25]+0.101*[#  14]+0.101*[#  36]+0.099*[#  18]
          +0.099*[#  32]+0.073*[#  16]+0.073*[#  30]+0.070*[#  12]+0.070*[#  34]
          +0.018*[#   5]+0.018*[#  23]+0.002*[#   2]+0.002*[#  20]+0.002*[#   6]
          +0.002*[#  24]+0.001*[#  11]+0.001*[#  33]
    |psi|^2 = 0.980
==== e(  24) =     9.36638 eV ==== 
     psi = 0.116*[#  12]+0.116*[#  34]+0.111*[#  16]+0.112*[#  30]+0.101*[#   5]
          +0.101*[#  23]+0.057*[#  18]+0.057*[#  32]+0.056*[#  14]+0.056*[#  36]
          +0.042*[#   7]+0.042*[#  25]+0.002*[#   2]+0.002*[#  20]+0.002*[#  10]
          +0.002*[#  28]
    |psi|^2 = 0.980
==== e(  25) =    10.37568 eV ==== 
     psi = 0.198*[#   5]+0.197*[#  23]+0.115*[#  16]+0.115*[#  30]+0.110*[#  12]
          +0.110*[#  34]+0.024*[#  18]+0.024*[#  32]+0.015*[#  14]+0.015*[#  36]
          +0.014*[#   8]+0.014*[#  26]+0.008*[#  15]+0.008*[#  29]+0.006*[#  11]
          +0.006*[#  33]+0.001*[#   2]+0.001*[#  20]
    |psi|^2 = 0.983
==== e(  26) =    10.59782 eV ==== 
     psi = 0.241*[#  23]+0.241*[#   5]+0.082*[#  12]+0.082*[#  34]+0.079*[#  16]
          +0.079*[#  30]+0.028*[#   8]+0.028*[#  26]+0.021*[#  14]+0.021*[#  36]
          +0.014*[#  11]+0.014*[#  33]+0.013*[#  18]+0.013*[#  32]+0.012*[#  15]
          +0.012*[#  29]+0.001*[#  10]+0.001*[#  28]
    |psi|^2 = 0.988

 k =   0.0000000000  0.1283000598 -0.1273334756
==== e(   1) =   -50.40053 eV ==== 
     psi = 0.959*[#   1]+0.014*[#  10]+0.010*[#  12]+0.010*[#  16]+0.003*[#   5]
          +0.001*[#  11]+0.001*[#  15]+0.001*[#  14]+0.001*[#  18]
    |psi|^2 = 1.000
==== e(   2) =   -50.40031 eV ==== 
     psi = 0.959*[#  19]+0.014*[#  28]+0.010*[#  30]+0.010*[#  34]+0.003*[#  23]
          +0.001*[#  29]+0.001*[#  33]+0.001*[#  32]+0.001*[#  36]
    |psi|^2 = 1.000
==== e(   3) =   -24.57405 eV ==== 
     psi = 0.978*[#   2]+0.006*[#  11]+0.006*[#  15]+0.003*[#  12]+0.003*[#  16]
          +0.001*[#  14]+0.001*[#  18]
    |psi|^2 = 1.000
==== e(   4) =   -24.57382 eV ==== 
     psi = 0.978*[#  20]+0.006*[#  29]+0.006*[#  33]+0.003*[#  30]+0.003*[#  34]
          +0.001*[#  32]+0.001*[#  36]
    |psi|^2 = 1.000
==== e(   5) =   -24.38406 eV ==== 
     psi = 0.991*[#   4]+0.003*[#  10]+0.001*[#   3]+0.001*[#  14]+0.001*[#  18]
          
    |psi|^2 = 1.000
==== e(   6) =   -24.38384 eV ==== 
     psi = 0.991*[#  22]+0.003*[#  28]+0.001*[#  21]+0.001*[#  32]+0.001*[#  36]
          
    |psi|^2 = 1.000
==== e(   7) =   -24.34393 eV ==== 
     psi = 0.996*[#   3]+0.001*[#   4]+0.001*[#  13]+0.001*[#  17]
    |psi|^2 = 1.000
==== e(   8) =   -24.34371 eV ==== 
     psi = 0.996*[#  21]+0.001*[#  22]+0.001*[#  31]+0.001*[#  35]
    |psi|^2 = 1.000
==== e(   9) =    -3.63079 eV ==== 
     psi = 0.361*[#  10]+0.278*[#  11]+0.228*[#  15]+0.053*[#  33]+0.030*[#  28]
          +0.016*[#   1]+0.006*[#  16]+0.004*[#  14]+0.004*[#  29]+0.003*[#  12]
          +0.003*[#   8]+0.003*[#  18]+0.002*[#   4]+0.002*[#  30]+0.002*[#   5]
          +0.001*[#  19]+0.001*[#  36]
    |psi|^2 = 0.999
==== e(  10) =    -3.63055 eV ==== 
     psi = 0.361*[#  28]+0.277*[#  29]+0.229*[#  33]+0.053*[#  15]+0.030*[#  10]
          +0.016*[#  19]+0.006*[#  34]+0.004*[#  32]+0.004*[#  11]+0.003*[#  30]
          +0.003*[#  26]+0.003*[#  36]+0.002*[#  12]+0.002*[#  22]+0.002*[#  23]
          +0.001*[#   1]+0.001*[#  18]
    |psi|^2 = 0.999
==== e(  11) =    -2.41226 eV ==== 
     psi = 0.385*[#  11]+0.300*[#  15]+0.162*[#  33]+0.075*[#  29]+0.023*[#   7]
          +0.010*[#   2]+0.008*[#  25]+0.006*[#  14]+0.005*[#  18]+0.005*[#  30]
          +0.003*[#  20]+0.003*[#  34]+0.003*[#  28]+0.002*[#  16]+0.002*[#  36]
          +0.002*[#  32]
    |psi|^2 = 0.997
==== e(  12) =    -2.41188 eV ==== 
     psi = 0.386*[#  29]+0.299*[#  33]+0.162*[#  15]+0.075*[#  11]+0.023*[#  25]
          +0.010*[#  20]+0.008*[#   7]+0.006*[#  32]+0.005*[#  36]+0.005*[#  12]
          +0.003*[#   2]+0.003*[#  16]+0.003*[#  10]+0.002*[#  34]+0.002*[#  18]
          +0.002*[#  14]
    |psi|^2 = 0.997
==== e(  13) =     4.78885 eV ==== 
     psi = 0.288*[#   5]+0.266*[#  16]+0.265*[#  12]+0.026*[#  10]+0.026*[#  11]
          +0.026*[#  15]+0.021*[#  30]+0.020*[#  34]+0.018*[#   1]+0.012*[#   8]
          +0.004*[#  14]+0.004*[#  18]+0.003*[#  25]+0.003*[#  33]+0.002*[#   4]
          +0.003*[#  29]
    |psi|^2 = 0.989
==== e(  14) =     4.78903 eV ==== 
     psi = 0.288*[#  23]+0.267*[#  34]+0.265*[#  30]+0.026*[#  28]+0.026*[#  29]
          +0.026*[#  33]+0.021*[#  12]+0.020*[#  16]+0.018*[#  19]+0.012*[#  26]
          +0.004*[#  32]+0.004*[#  36]+0.003*[#   7]+0.003*[#  15]+0.003*[#  11]
          +0.002*[#  22]
    |psi|^2 = 0.989
==== e(  15) =     7.42086 eV ==== 
     psi = 0.592*[#   8]+0.167*[#  14]+0.164*[#  18]+0.020*[#  10]+0.010*[#  11]
          +0.010*[#  15]+0.004*[#  30]+0.004*[#  34]+0.004*[#  36]+0.003*[#  16]
          +0.003*[#  25]+0.002*[#  26]+0.002*[#   1]+0.002*[#  12]+0.001*[#   4]
          
    |psi|^2 = 0.988
==== e(  16) =     7.42109 eV ==== 
     psi = 0.592*[#  26]+0.167*[#  32]+0.164*[#  36]+0.020*[#  28]+0.010*[#  29]
          +0.010*[#  33]+0.004*[#  12]+0.004*[#  16]+0.004*[#  18]+0.003*[#   7]
          +0.003*[#  34]+0.002*[#   8]+0.002*[#  19]+0.002*[#  30]+0.001*[#  22]
          
    |psi|^2 = 0.988
==== e(  17) =     7.85797 eV ==== 
     psi = 0.235*[#   7]+0.178*[#  16]+0.176*[#  12]+0.086*[#  18]+0.080*[#  14]
          +0.057*[#  23]+0.044*[#  25]+0.034*[#  30]+0.032*[#  34]+0.020*[#  32]
          +0.013*[#  36]+0.011*[#   5]+0.005*[#  33]+0.005*[#  28]+0.004*[#  26]
          +0.003*[#  11]+0.002*[#  29]+0.001*[#   2]
    |psi|^2 = 0.990
==== e(  18) =     7.85819 eV ==== 
     psi = 0.235*[#  25]+0.178*[#  34]+0.176*[#  30]+0.086*[#  36]+0.080*[#  32]
          +0.057*[#   5]+0.044*[#   7]+0.034*[#  12]+0.032*[#  16]+0.020*[#  14]
          +0.013*[#  18]+0.011*[#  23]+0.005*[#  15]+0.005*[#  10]+0.004*[#   8]
          +0.003*[#  29]+0.002*[#  11]+0.001*[#  20]
    |psi|^2 = 0.990
==== e(  19) =     8.00983 eV ==== 
     psi = 0.641*[#   9]+0.173*[#  13]+0.173*[#  17]+0.002*[#   3]
    |psi|^2 = 0.990
==== e(  20) =     8.01007 eV ==== 
     psi = 0.641*[#  27]+0.173*[#  31]+0.173*[#  35]+0.002*[#  21]
    |psi|^2 = 0.990
==== e(  21) =     8.68197 eV ==== 
     psi = 0.552*[#   6]+0.214*[#  13]+0.213*[#  17]+0.002*[#  24]+0.001*[#  12]
          +0.001*[#  16]+0.001*[#  35]
    |psi|^2 = 0.988
==== e(  22) =     8.68220 eV ==== 
     psi = 0.552*[#  24]+0.214*[#  31]+0.213*[#  35]+0.002*[#   6]+0.001*[#  30]
          +0.001*[#  34]+0.001*[#  17]
    |psi|^2 = 0.988
==== e(  23) =     9.18802 eV ==== 
     psi = 0.175*[#  12]+0.137*[#  14]+0.136*[#   7]+0.128*[#  18]+0.110*[#  16]
          +0.079*[#  23]+0.075*[#  34]+0.037*[#  36]+0.033*[#  25]+0.028*[#  32]
          +0.019*[#   5]+0.009*[#  30]+0.004*[#   2]+0.002*[#  28]+0.001*[#   6]
          +0.001*[#  11]
    |psi|^2 = 0.980
==== e(  24) =     9.18826 eV ==== 
     psi = 0.175*[#  30]+0.137*[#  32]+0.136*[#  25]+0.128*[#  36]+0.110*[#  34]
          +0.079*[#   5]+0.075*[#  16]+0.037*[#  18]+0.033*[#   7]+0.028*[#  14]
          +0.019*[#  23]+0.009*[#  12]+0.004*[#  20]+0.002*[#  10]+0.001*[#  24]
          
    |psi|^2 = 0.980
==== e(  25) =    10.51173 eV ==== 
     psi = 0.273*[#   5]+0.186*[#  12]+0.178*[#  23]+0.171*[#  34]+0.034*[#  14]
          +0.033*[#  36]+0.026*[#   8]+0.018*[#  11]+0.017*[#  16]+0.017*[#  26]
          +0.014*[#  33]+0.007*[#  15]+0.003*[#  29]+0.002*[#  18]+0.002*[#  30]
          
    |psi|^2 = 0.985
==== e(  26) =    10.51236 eV ==== 
     psi = 0.273*[#  23]+0.186*[#  30]+0.178*[#   5]+0.171*[#  16]+0.034*[#  32]
          +0.033*[#  18]+0.026*[#  26]+0.018*[#  29]+0.017*[#  34]+0.017*[#   8]
          +0.014*[#  15]+0.007*[#  33]+0.003*[#  11]+0.002*[#  36]+0.002*[#  12]
          
    |psi|^2 = 0.985

 k =   0.0000000000  0.2566001196  0.0000000000
==== e(   1) =   -50.38778 eV ==== 
     psi = 0.969*[#   1]+0.008*[#  12]+0.008*[#  16]+0.004*[#  14]+0.004*[#  18]
          +0.002*[#  10]+0.002*[#  11]+0.002*[#  15]+0.001*[#   8]
    |psi|^2 = 1.000
==== e(   2) =   -50.38756 eV ==== 
     psi = 0.969*[#  19]+0.008*[#  30]+0.008*[#  34]+0.004*[#  32]+0.004*[#  36]
          +0.002*[#  28]+0.002*[#  29]+0.002*[#  33]+0.001*[#  26]
    |psi|^2 = 1.000
==== e(   3) =   -24.54911 eV ==== 
     psi = 0.919*[#   2]+0.059*[#  20]+0.004*[#  11]+0.004*[#  14]+0.004*[#  15]
          +0.004*[#  18]+0.002*[#  12]+0.002*[#  16]+0.001*[#   7]
    |psi|^2 = 1.000
==== e(   4) =   -24.54885 eV ==== 
     psi = 0.919*[#  20]+0.059*[#   2]+0.004*[#  29]+0.004*[#  32]+0.004*[#  33]
          +0.004*[#  36]+0.002*[#  30]+0.002*[#  34]+0.001*[#  25]
    |psi|^2 = 1.000
==== e(   5) =   -24.50826 eV ==== 
     psi = 0.974*[#   4]+0.008*[#  10]+0.006*[#  22]+0.003*[#  12]+0.003*[#  16]
          +0.001*[#   5]
    |psi|^2 = 1.000
==== e(   6) =   -24.50804 eV ==== 
     psi = 0.974*[#  22]+0.009*[#  28]+0.006*[#   4]+0.003*[#  30]+0.003*[#  34]
          +0.001*[#  23]
    |psi|^2 = 1.000
==== e(   7) =   -24.37240 eV ==== 
     psi = 0.990*[#   3]+0.005*[#  21]+0.002*[#  13]+0.002*[#  17]
    |psi|^2 = 1.000
==== e(   8) =   -24.37218 eV ==== 
     psi = 0.990*[#  21]+0.005*[#   3]+0.002*[#  31]+0.002*[#  35]
    |psi|^2 = 1.000
==== e(   9) =    -3.22326 eV ==== 
     psi = 0.157*[#  10]+0.157*[#  28]+0.155*[#  11]+0.154*[#  15]+0.154*[#  33]
          +0.154*[#  29]+0.007*[#   8]+0.007*[#  26]+0.007*[#  14]+0.007*[#  18]
          +0.007*[#  32]+0.007*[#  36]+0.005*[#   1]+0.005*[#  19]+0.004*[#   4]
          +0.004*[#  22]+0.002*[#   5]+0.002*[#  23]+0.001*[#  12]+0.001*[#  16]
          +0.001*[#  30]+0.001*[#  34]
    |psi|^2 = 0.999
==== e(  10) =    -2.96884 eV ==== 
     psi = 0.158*[#  33]+0.157*[#  11]+0.157*[#  29]+0.157*[#  15]+0.143*[#  28]
          +0.143*[#  10]+0.008*[#   8]+0.008*[#  26]+0.007*[#  12]+0.007*[#  16]
          +0.007*[#  30]+0.007*[#  34]+0.005*[#   1]+0.005*[#  19]+0.005*[#  14]
          +0.005*[#  18]+0.005*[#  32]+0.005*[#  36]+0.004*[#   4]+0.004*[#  22]
          
    |psi|^2 = 0.999
==== e(  11) =    -2.39368 eV ==== 
     psi = 0.211*[#  15]+0.211*[#  11]+0.211*[#  29]+0.211*[#  33]+0.049*[#   7]
          +0.049*[#  25]+0.010*[#  14]+0.010*[#  18]+0.010*[#  32]+0.010*[#  36]
          +0.006*[#   2]+0.006*[#  20]+0.001*[#  12]+0.001*[#  16]+0.001*[#  30]
          +0.001*[#  34]
    |psi|^2 = 0.999
==== e(  12) =    -2.04066 eV ==== 
     psi = 0.215*[#  29]+0.214*[#  15]+0.214*[#  33]+0.214*[#  11]+0.050*[#   7]
          +0.050*[#  25]+0.006*[#  14]+0.006*[#  18]+0.006*[#  32]+0.006*[#  36]
          +0.006*[#   2]+0.006*[#  20]
    |psi|^2 = 0.998
==== e(  13) =     4.83804 eV ==== 
     psi = 0.146*[#  12]+0.146*[#  16]+0.146*[#  30]+0.146*[#  34]+0.098*[#   5]
          +0.098*[#  23]+0.052*[#   8]+0.052*[#  26]+0.015*[#  14]+0.015*[#  18]
          +0.015*[#  32]+0.015*[#  36]+0.006*[#  10]+0.006*[#  28]+0.005*[#  11]
          +0.005*[#  15]+0.005*[#  29]+0.005*[#  33]+0.004*[#   1]+0.004*[#  19]
          +0.003*[#   4]+0.003*[#  22]
    |psi|^2 = 0.991
==== e(  14) =     5.72005 eV ==== 
     psi = 0.121*[#   5]+0.121*[#  23]+0.110*[#   8]+0.110*[#  26]+0.086*[#  12]
          +0.086*[#  30]+0.086*[#  34]+0.086*[#  16]+0.033*[#  14]+0.033*[#  18]
          +0.033*[#  32]+0.033*[#  36]+0.008*[#  11]+0.008*[#  15]+0.008*[#  29]
          +0.008*[#  33]+0.003*[#  10]+0.003*[#  28]+0.003*[#   1]+0.003*[#  19]
          +0.002*[#   4]+0.002*[#  22]
    |psi|^2 = 0.987
==== e(  15) =     6.50749 eV ==== 
     psi = 0.131*[#   7]+0.131*[#  25]+0.111*[#  12]+0.111*[#  16]+0.111*[#  30]
          +0.111*[#  34]+0.071*[#  14]+0.071*[#  18]+0.071*[#  36]+0.071*[#  32]
          +0.001*[#  11]+0.001*[#  15]+0.001*[#  29]+0.001*[#  33]
    |psi|^2 = 0.995
==== e(  16) =     6.61811 eV ==== 
     psi = 0.168*[#   8]+0.167*[#  26]+0.097*[#  14]+0.097*[#  18]+0.097*[#  36]
          +0.097*[#  32]+0.035*[#  10]+0.035*[#  28]+0.022*[#  12]+0.022*[#  16]
          +0.022*[#  30]+0.022*[#  34]+0.019*[#  11]+0.019*[#  15]+0.019*[#  29]
          +0.019*[#  33]+0.010*[#   5]+0.010*[#  23]+0.004*[#   1]+0.004*[#  19]
          +0.002*[#   4]+0.002*[#  22]
    |psi|^2 = 0.986
==== e(  17) =     6.81387 eV ==== 
     psi = 0.125*[#  26]+0.124*[#   8]+0.079*[#  32]+0.079*[#  36]+0.079*[#  14]
          +0.079*[#  18]+0.045*[#   5]+0.045*[#  23]+0.040*[#  10]+0.040*[#  28]
          +0.036*[#  12]+0.036*[#  34]+0.036*[#  16]+0.036*[#  30]+0.022*[#  11]
          +0.022*[#  15]+0.022*[#  29]+0.022*[#  33]+0.005*[#   1]+0.005*[#  19]
          +0.003*[#   4]+0.003*[#  22]
    |psi|^2 = 0.983
==== e(  18) =     7.24137 eV ==== 
     psi = 0.159*[#   7]+0.159*[#  25]+0.137*[#  18]+0.137*[#  32]+0.137*[#  14]
          +0.137*[#  36]+0.024*[#  12]+0.024*[#  16]+0.024*[#  30]+0.024*[#  34]
          +0.006*[#  11]+0.006*[#  15]+0.006*[#  29]+0.006*[#  33]
    |psi|^2 = 0.984
==== e(  19) =     8.06325 eV ==== 
     psi = 0.265*[#   6]+0.263*[#  24]+0.116*[#  13]+0.116*[#  17]+0.115*[#  35]
          +0.115*[#  31]
    |psi|^2 = 0.991
==== e(  20) =     8.12747 eV ==== 
     psi = 0.273*[#  24]+0.271*[#   6]+0.112*[#  35]+0.111*[#  31]+0.111*[#  13]
          +0.111*[#  17]
    |psi|^2 = 0.990
==== e(  21) =     8.49519 eV ==== 
     psi = 0.256*[#   9]+0.253*[#  27]+0.119*[#  17]+0.119*[#  13]+0.118*[#  31]
          +0.118*[#  35]+0.002*[#   3]+0.002*[#  21]
    |psi|^2 = 0.988
==== e(  22) =     8.54744 eV ==== 
     psi = 0.266*[#  27]+0.264*[#   9]+0.114*[#  31]+0.114*[#  35]+0.113*[#  17]
          +0.113*[#  13]+0.002*[#   3]+0.002*[#  21]
    |psi|^2 = 0.987
==== e(  23) =     8.84069 eV ==== 
     psi = 0.116*[#  12]+0.115*[#  16]+0.115*[#  30]+0.115*[#  34]+0.111*[#  14]
          +0.111*[#  18]+0.111*[#  32]+0.111*[#  36]+0.022*[#   7]+0.022*[#  25]
          +0.005*[#  11]+0.005*[#  15]+0.005*[#  29]+0.005*[#  33]+0.005*[#   2]
          +0.005*[#  20]
    |psi|^2 = 0.982
==== e(  24) =     9.59521 eV ==== 
     psi = 0.164*[#  12]+0.164*[#  34]+0.163*[#  16]+0.163*[#  30]+0.064*[#  14]
          +0.064*[#  36]+0.064*[#  18]+0.064*[#  32]+0.017*[#   7]+0.017*[#  25]
          +0.010*[#  11]+0.010*[#  15]+0.010*[#  29]+0.010*[#  33]+0.004*[#   2]
          +0.004*[#  20]
    |psi|^2 = 0.992
==== e(  25) =     9.64487 eV ==== 
     psi = 0.276*[#   5]+0.275*[#  23]+0.076*[#   8]+0.076*[#  26]+0.044*[#  12]
          +0.044*[#  16]+0.044*[#  30]+0.044*[#  34]+0.018*[#  14]+0.018*[#  18]
          +0.018*[#  32]+0.018*[#  36]+0.006*[#  11]+0.006*[#  15]+0.006*[#  29]
          +0.006*[#  33]+0.002*[#  10]+0.002*[#  28]
    |psi|^2 = 0.978
==== e(  26) =     9.80624 eV ==== 
     psi = 0.210*[#  23]+0.210*[#   5]+0.119*[#  26]+0.118*[#   8]+0.040*[#  30]
          +0.040*[#  16]+0.039*[#  34]+0.039*[#  12]+0.027*[#  18]+0.027*[#  32]
          +0.027*[#  14]+0.027*[#  36]+0.012*[#  11]+0.013*[#  15]+0.013*[#  29]
          +0.012*[#  33]+0.006*[#  10]+0.006*[#  28]
    |psi|^2 = 0.986

 k =   0.0000000000  0.2566001196  0.0424444919
==== e(   1) =   -50.38778 eV ==== 
     psi = 0.969*[#   1]+0.008*[#  12]+0.008*[#  16]+0.004*[#  14]+0.004*[#  18]
          +0.002*[#  10]+0.002*[#  11]+0.002*[#  15]+0.001*[#   8]
    |psi|^2 = 1.000
==== e(   2) =   -50.38756 eV ==== 
     psi = 0.969*[#  19]+0.008*[#  30]+0.008*[#  34]+0.004*[#  32]+0.004*[#  36]
          +0.002*[#  28]+0.002*[#  29]+0.002*[#  33]+0.001*[#  26]
    |psi|^2 = 1.000
==== e(   3) =   -24.54914 eV ==== 
     psi = 0.915*[#   2]+0.063*[#  20]+0.004*[#  11]+0.004*[#  14]+0.004*[#  15]
          +0.004*[#  18]+0.002*[#  12]+0.002*[#  16]+0.001*[#   7]
    |psi|^2 = 1.000
==== e(   4) =   -24.54887 eV ==== 
     psi = 0.915*[#  20]+0.063*[#   2]+0.004*[#  29]+0.004*[#  32]+0.004*[#  33]
          +0.004*[#  36]+0.002*[#  30]+0.002*[#  34]+0.001*[#  25]
    |psi|^2 = 1.000
==== e(   5) =   -24.50831 eV ==== 
     psi = 0.970*[#   4]+0.010*[#  22]+0.008*[#  10]+0.003*[#  12]+0.003*[#  16]
          +0.001*[#   5]
    |psi|^2 = 1.000
==== e(   6) =   -24.50808 eV ==== 
     psi = 0.970*[#  22]+0.010*[#   4]+0.008*[#  28]+0.003*[#  30]+0.003*[#  34]
          +0.001*[#  23]
    |psi|^2 = 1.000
==== e(   7) =   -24.37242 eV ==== 
     psi = 0.993*[#   3]+0.002*[#  21]+0.002*[#  13]+0.002*[#  17]
    |psi|^2 = 1.000
==== e(   8) =   -24.37220 eV ==== 
     psi = 0.993*[#  21]+0.002*[#   3]+0.002*[#  31]+0.002*[#  35]
    |psi|^2 = 1.000
==== e(   9) =    -3.21087 eV ==== 
     psi = 0.156*[#  10]+0.155*[#  28]+0.155*[#  11]+0.155*[#  33]+0.155*[#  15]
          +0.154*[#  29]+0.007*[#   8]+0.007*[#  26]+0.007*[#  14]+0.007*[#  36]
          +0.007*[#  18]+0.006*[#  32]+0.005*[#   1]+0.005*[#  19]+0.004*[#   4]
          +0.004*[#  22]+0.002*[#   5]+0.002*[#  23]+0.002*[#  12]+0.002*[#  16]
          +0.002*[#  30]+0.002*[#  34]
    |psi|^2 = 0.999
==== e(  10) =    -2.99436 eV ==== 
     psi = 0.158*[#  29]+0.158*[#  33]+0.157*[#  11]+0.158*[#  15]+0.143*[#  28]
          +0.143*[#  10]+0.008*[#   8]+0.008*[#  26]+0.006*[#  12]+0.006*[#  16]
          +0.006*[#  30]+0.006*[#  34]+0.005*[#   1]+0.005*[#  18]+0.005*[#  19]
          +0.005*[#  32]+0.005*[#  14]+0.005*[#  36]+0.004*[#   4]+0.004*[#  22]
          
    |psi|^2 = 0.999
==== e(  11) =    -2.36178 eV ==== 
     psi = 0.211*[#  11]+0.211*[#  15]+0.211*[#  33]+0.211*[#  29]+0.049*[#   7]
          +0.049*[#  25]+0.010*[#  14]+0.010*[#  36]+0.009*[#  18]+0.009*[#  32]
          +0.006*[#   2]+0.006*[#  20]+0.001*[#  10]+0.001*[#  12]+0.001*[#  16]
          +0.001*[#  28]+0.001*[#  30]+0.001*[#  34]
    |psi|^2 = 0.999
==== e(  12) =    -2.05989 eV ==== 
     psi = 0.214*[#  29]+0.214*[#  15]+0.214*[#  33]+0.213*[#  11]+0.050*[#   7]
          +0.050*[#  25]+0.006*[#  18]+0.006*[#  32]+0.006*[#  14]+0.006*[#  36]
          +0.006*[#   2]+0.006*[#  20]+0.001*[#  12]+0.001*[#  16]+0.001*[#  30]
          +0.001*[#  34]
    |psi|^2 = 0.998
==== e(  13) =     4.87890 eV ==== 
     psi = 0.145*[#  16]+0.145*[#  30]+0.144*[#  12]+0.144*[#  34]+0.098*[#   5]
          +0.098*[#  23]+0.053*[#   8]+0.053*[#  26]+0.018*[#  14]+0.018*[#  36]
          +0.013*[#  18]+0.013*[#  32]+0.006*[#  10]+0.006*[#  28]+0.005*[#  11]
          +0.005*[#  15]+0.005*[#  29]+0.005*[#  33]+0.004*[#   1]+0.004*[#  19]
          +0.003*[#   4]+0.003*[#  22]
    |psi|^2 = 0.991
==== e(  14) =     5.61735 eV ==== 
     psi = 0.114*[#   5]+0.114*[#  23]+0.101*[#  12]+0.101*[#  34]+0.097*[#  16]
          +0.097*[#  30]+0.093*[#   8]+0.093*[#  26]+0.039*[#  18]+0.039*[#  32]
          +0.020*[#  14]+0.020*[#  36]+0.009*[#  11]+0.009*[#  33]+0.008*[#  15]
          +0.008*[#  29]+0.005*[#   7]+0.005*[#  25]+0.003*[#  10]+0.003*[#  28]
          +0.003*[#   1]+0.003*[#  19]+0.002*[#   4]+0.002*[#  22]
    |psi|^2 = 0.988
==== e(  15) =     6.54847 eV ==== 
     psi = 0.132*[#  14]+0.132*[#  36]+0.092*[#  12]+0.092*[#  34]+0.090*[#   7]
          +0.090*[#  25]+0.062*[#   8]+0.062*[#  26]+0.059*[#  16]+0.059*[#  30]
          +0.040*[#  18]+0.040*[#  32]+0.009*[#  10]+0.009*[#  28]+0.008*[#  11]
          +0.008*[#  33]+0.002*[#   5]+0.002*[#  23]+0.001*[#  15]+0.001*[#  29]
          
    |psi|^2 = 0.992
==== e(  16) =     6.62956 eV ==== 
     psi = 0.158*[#   8]+0.158*[#  26]+0.095*[#  14]+0.096*[#  36]+0.092*[#  18]
          +0.091*[#  32]+0.053*[#  16]+0.053*[#  30]+0.030*[#  10]+0.030*[#  28]
          +0.020*[#  15]+0.020*[#  29]+0.014*[#  11]+0.014*[#  33]+0.013*[#   7]
          +0.013*[#  25]+0.007*[#   5]+0.007*[#  23]+0.005*[#  12]+0.005*[#  34]
          +0.004*[#   1]+0.004*[#  19]+0.001*[#   4]+0.001*[#  22]
    |psi|^2 = 0.986
==== e(  17) =     6.84951 eV ==== 
     psi = 0.134*[#  32]+0.133*[#  18]+0.087*[#  26]+0.087*[#   8]+0.053*[#  12]
          +0.053*[#  34]+0.048*[#   5]+0.048*[#  23]+0.043*[#  16]+0.043*[#  30]
          +0.034*[#  10]+0.034*[#  28]+0.028*[#   7]+0.028*[#  25]+0.024*[#  15]
          +0.024*[#  29]+0.018*[#  14]+0.018*[#  36]+0.017*[#  11]+0.017*[#  33]
          +0.004*[#   1]+0.004*[#  19]+0.002*[#   4]+0.002*[#  22]
    |psi|^2 = 0.985
==== e(  18) =     7.22975 eV ==== 
     psi = 0.156*[#   7]+0.156*[#  25]+0.148*[#  14]+0.148*[#  36]+0.115*[#  18]
          +0.115*[#  32]+0.028*[#  12]+0.028*[#  34]+0.025*[#  16]+0.025*[#  30]
          +0.009*[#  11]+0.009*[#  33]+0.004*[#   5]+0.004*[#  15]+0.004*[#  23]
          +0.004*[#  29]+0.001*[#   8]+0.001*[#  26]+0.001*[#  10]+0.001*[#  28]
          
    |psi|^2 = 0.984
==== e(  19) =     8.06709 eV ==== 
     psi = 0.265*[#   6]+0.263*[#  24]+0.116*[#  17]+0.115*[#  13]+0.115*[#  31]
          +0.115*[#  35]
    |psi|^2 = 0.991
==== e(  20) =     8.12256 eV ==== 
     psi = 0.272*[#  24]+0.270*[#   6]+0.113*[#  35]+0.112*[#  13]+0.112*[#  31]
          +0.111*[#  17]
    |psi|^2 = 0.990
==== e(  21) =     8.49930 eV ==== 
     psi = 0.256*[#   9]+0.254*[#  27]+0.119*[#  17]+0.118*[#  13]+0.118*[#  31]
          +0.117*[#  35]+0.002*[#   3]+0.002*[#  21]
    |psi|^2 = 0.988
==== e(  22) =     8.54442 eV ==== 
     psi = 0.265*[#  27]+0.263*[#   9]+0.115*[#  35]+0.114*[#  31]+0.113*[#  13]
          +0.113*[#  17]+0.002*[#   3]+0.002*[#  21]
    |psi|^2 = 0.987
==== e(  23) =     8.86521 eV ==== 
     psi = 0.121*[#  12]+0.121*[#  34]+0.116*[#  16]+0.116*[#  30]+0.113*[#  14]
          +0.113*[#  36]+0.102*[#  18]+0.102*[#  32]+0.019*[#   7]+0.019*[#  25]
          +0.007*[#  11]+0.007*[#  33]+0.005*[#   2]+0.004*[#   5]+0.005*[#  20]
          +0.004*[#  23]+0.003*[#  15]+0.003*[#  29]
    |psi|^2 = 0.982
==== e(  24) =     9.45669 eV ==== 
     psi = 0.137*[#  16]+0.137*[#  30]+0.126*[#  12]+0.127*[#  34]+0.083*[#   5]
          +0.083*[#  23]+0.059*[#  18]+0.059*[#  32]+0.050*[#  14]+0.050*[#  36]
          +0.013*[#   8]+0.013*[#  26]+0.009*[#  15]+0.009*[#  29]+0.007*[#   7]
          +0.007*[#  25]+0.005*[#  11]+0.005*[#  33]+0.003*[#   2]+0.003*[#  20]
          
    |psi|^2 = 0.986
==== e(  25) =     9.72913 eV ==== 
     psi = 0.188*[#   5]+0.187*[#  23]+0.081*[#  12]+0.081*[#  34]+0.068*[#   8]
          +0.068*[#  26]+0.065*[#  16]+0.065*[#  30]+0.033*[#  18]+0.033*[#  32]
          +0.028*[#  14]+0.028*[#  36]+0.011*[#  11]+0.011*[#  33]+0.008*[#  15]
          +0.007*[#  29]+0.007*[#   7]+0.007*[#  25]+0.002*[#  10]+0.002*[#  28]
          
    |psi|^2 = 0.984
==== e(  26) =     9.80809 eV ==== 
     psi = 0.210*[#  23]+0.210*[#   5]+0.116*[#  26]+0.116*[#   8]+0.046*[#  30]
          +0.046*[#  16]+0.036*[#  34]+0.036*[#  12]+0.027*[#  32]+0.027*[#  18]
          +0.026*[#  14]+0.026*[#  36]+0.014*[#  15]+0.014*[#  29]+0.011*[#  11]
          +0.011*[#  33]+0.005*[#  10]+0.005*[#  28]
    |psi|^2 = 0.986

 k =   0.0000000000  0.2566001196  0.0848889837
==== e(   1) =   -50.38778 eV ==== 
     psi = 0.969*[#   1]+0.008*[#  12]+0.008*[#  16]+0.004*[#  14]+0.004*[#  18]
          +0.002*[#  10]+0.002*[#  11]+0.002*[#  15]+0.001*[#   8]
    |psi|^2 = 1.000
==== e(   2) =   -50.38756 eV ==== 
     psi = 0.969*[#  19]+0.008*[#  30]+0.008*[#  34]+0.004*[#  32]+0.004*[#  36]
          +0.002*[#  28]+0.002*[#  29]+0.002*[#  33]+0.001*[#  26]
    |psi|^2 = 1.000
==== e(   3) =   -24.54913 eV ==== 
     psi = 0.960*[#   2]+0.018*[#  20]+0.004*[#  11]+0.004*[#  14]+0.004*[#  15]
          +0.004*[#  18]+0.002*[#  12]+0.002*[#  16]+0.001*[#   7]
    |psi|^2 = 1.000
==== e(   4) =   -24.54889 eV ==== 
     psi = 0.960*[#  20]+0.018*[#   2]+0.004*[#  29]+0.004*[#  32]+0.004*[#  33]
          +0.004*[#  36]+0.002*[#  30]+0.002*[#  34]+0.001*[#  25]
    |psi|^2 = 1.000
==== e(   5) =   -24.50831 eV ==== 
     psi = 0.972*[#   4]+0.008*[#  10]+0.008*[#  22]+0.003*[#  12]+0.003*[#  16]
          +0.001*[#   5]
    |psi|^2 = 1.000
==== e(   6) =   -24.50808 eV ==== 
     psi = 0.972*[#  22]+0.008*[#  28]+0.008*[#   4]+0.003*[#  30]+0.003*[#  34]
          +0.001*[#  23]
    |psi|^2 = 1.000
==== e(   7) =   -24.37242 eV ==== 
     psi = 0.995*[#   3]+0.002*[#  13]+0.002*[#  17]
    |psi|^2 = 1.000
==== e(   8) =   -24.37220 eV ==== 
     psi = 0.995*[#  21]+0.002*[#  31]+0.002*[#  35]
    |psi|^2 = 1.000
==== e(   9) =    -3.17493 eV ==== 
     psi = 0.156*[#  11]+0.156*[#  33]+0.156*[#  15]+0.155*[#  29]+0.152*[#  10]
          +0.152*[#  28]+0.008*[#   8]+0.007*[#  26]+0.007*[#  14]+0.007*[#  36]
          +0.006*[#  18]+0.006*[#  32]+0.005*[#   1]+0.005*[#  19]+0.004*[#   4]
          +0.004*[#  22]+0.002*[#  12]+0.002*[#  16]+0.002*[#  30]+0.002*[#  34]
          +0.002*[#   5]+0.002*[#  23]
    |psi|^2 = 0.999
==== e(  10) =    -3.05371 eV ==== 
     psi = 0.158*[#  29]+0.158*[#  33]+0.158*[#  15]+0.157*[#  11]+0.144*[#  28]
          +0.144*[#  10]+0.008*[#   8]+0.008*[#  26]+0.006*[#  18]+0.006*[#  32]
          +0.006*[#  14]+0.006*[#  36]+0.005*[#   1]+0.005*[#  19]+0.005*[#  12]
          +0.005*[#  16]+0.005*[#  30]+0.005*[#  34]+0.004*[#   4]+0.004*[#  22]
          +0.001*[#   7]+0.001*[#  25]+0.001*[#   5]+0.001*[#  23]
    |psi|^2 = 0.999
==== e(  11) =    -2.28482 eV ==== 
     psi = 0.211*[#  11]+0.211*[#  33]+0.211*[#  15]+0.210*[#  29]+0.048*[#   7]
          +0.048*[#  25]+0.009*[#  14]+0.009*[#  36]+0.008*[#  18]+0.008*[#  32]
          +0.006*[#   2]+0.006*[#  20]+0.003*[#  10]+0.003*[#  28]+0.002*[#  12]
          +0.002*[#  16]+0.002*[#  30]+0.002*[#  34]
    |psi|^2 = 0.999
==== e(  12) =    -2.11433 eV ==== 
     psi = 0.214*[#  29]+0.213*[#  15]+0.213*[#  33]+0.212*[#  11]+0.049*[#  25]
          +0.049*[#   7]+0.007*[#  18]+0.007*[#  32]+0.007*[#  14]+0.007*[#  36]
          +0.006*[#   2]+0.006*[#  20]+0.002*[#  12]+0.002*[#  16]+0.002*[#  30]
          +0.002*[#  34]+0.001*[#  10]+0.001*[#  28]
    |psi|^2 = 0.999
==== e(  13) =     4.99721 eV ==== 
     psi = 0.141*[#  16]+0.141*[#  30]+0.138*[#  12]+0.138*[#  34]+0.099*[#   5]
          +0.099*[#  23]+0.056*[#   8]+0.056*[#  26]+0.021*[#  14]+0.021*[#  36]
          +0.013*[#  18]+0.013*[#  32]+0.006*[#  10]+0.006*[#  11]+0.006*[#  15]
          +0.006*[#  29]+0.006*[#  28]+0.006*[#  33]+0.004*[#   1]+0.004*[#  19]
          +0.003*[#   4]+0.003*[#   7]+0.003*[#  22]+0.003*[#  25]
    |psi|^2 = 0.991
==== e(  14) =     5.40252 eV ==== 
     psi = 0.120*[#  12]+0.120*[#  34]+0.115*[#  16]+0.115*[#  30]+0.106*[#   5]
          +0.106*[#  23]+0.073*[#   8]+0.073*[#  26]+0.033*[#  18]+0.033*[#  32]
          +0.014*[#  14]+0.014*[#  36]+0.008*[#  11]+0.008*[#  33]+0.008*[#   7]
          +0.008*[#  25]+0.007*[#  15]+0.007*[#  29]+0.004*[#  10]+0.004*[#  28]
          +0.003*[#   1]+0.003*[#  19]+0.003*[#   4]+0.003*[#  22]
    |psi|^2 = 0.990
==== e(  15) =     6.59246 eV ==== 
     psi = 0.134*[#   8]+0.133*[#  26]+0.127*[#  14]+0.127*[#  36]+0.072*[#  18]
          +0.072*[#  32]+0.060*[#  12]+0.060*[#  34]+0.035*[#   7]+0.035*[#  25]
          +0.023*[#  10]+0.023*[#  28]+0.015*[#  11]+0.015*[#  33]+0.013*[#  16]
          +0.013*[#  30]+0.007*[#  15]+0.006*[#  29]+0.005*[#   5]+0.005*[#  23]
          +0.003*[#   1]+0.003*[#  19]+0.001*[#   4]+0.001*[#  22]
    |psi|^2 = 0.989
==== e(  16) =     6.63774 eV ==== 
     psi = 0.158*[#  26]+0.158*[#   8]+0.106*[#  36]+0.105*[#  14]+0.085*[#  32]
          +0.085*[#  18]+0.057*[#  16]+0.057*[#  30]+0.027*[#  28]+0.027*[#  10]
          +0.019*[#   7]+0.019*[#  25]+0.018*[#  15]+0.018*[#  29]+0.011*[#  11]
          +0.011*[#  33]+0.006*[#   5]+0.006*[#  23]+0.004*[#   1]+0.004*[#  19]
          +0.001*[#   4]+0.001*[#  22]+0.001*[#  12]+0.001*[#  34]
    |psi|^2 = 0.985
==== e(  17) =     6.96633 eV ==== 
     psi = 0.147*[#  18]+0.147*[#  32]+0.089*[#   7]+0.089*[#  25]+0.060*[#  12]
          +0.060*[#  34]+0.058*[#  16]+0.058*[#  30]+0.043*[#   5]+0.044*[#  23]
          +0.030*[#   8]+0.030*[#  26]+0.020*[#  15]+0.020*[#  29]+0.019*[#  10]
          +0.019*[#  28]+0.014*[#  14]+0.014*[#  36]+0.009*[#  11]+0.009*[#  33]
          +0.002*[#   1]+0.002*[#  19]+0.001*[#   4]+0.001*[#  22]
    |psi|^2 = 0.986
==== e(  18) =     7.18714 eV ==== 
     psi = 0.151*[#  14]+0.151*[#  36]+0.146*[#  25]+0.146*[#   7]+0.085*[#  32]
          +0.085*[#  18]+0.037*[#  12]+0.037*[#  34]+0.033*[#  16]+0.033*[#  30]
          +0.015*[#   5]+0.014*[#  23]+0.013*[#  11]+0.013*[#  33]+0.005*[#   8]
          +0.005*[#  26]+0.004*[#  10]+0.004*[#  28]+0.003*[#  15]+0.003*[#  29]
          
    |psi|^2 = 0.985
==== e(  19) =     8.07783 eV ==== 
     psi = 0.267*[#   6]+0.263*[#  24]+0.116*[#  17]+0.115*[#  13]+0.114*[#  31]
          +0.113*[#  35]
    |psi|^2 = 0.991
==== e(  20) =     8.10971 eV ==== 
     psi = 0.271*[#  24]+0.267*[#   6]+0.114*[#  35]+0.112*[#  13]+0.113*[#  31]
          +0.111*[#  17]
    |psi|^2 = 0.990
==== e(  21) =     8.50999 eV ==== 
     psi = 0.259*[#   9]+0.254*[#  27]+0.119*[#  17]+0.117*[#  13]+0.117*[#  31]
          +0.115*[#  35]+0.002*[#   3]+0.002*[#  21]+0.001*[#   6]+0.001*[#  24]
          
    |psi|^2 = 0.988
==== e(  22) =     8.53589 eV ==== 
     psi = 0.264*[#  27]+0.259*[#   9]+0.116*[#  35]+0.115*[#  31]+0.114*[#  13]
          +0.113*[#  17]+0.002*[#   3]+0.002*[#  21]+0.001*[#   6]
    |psi|^2 = 0.987
==== e(  23) =     8.94361 eV ==== 
     psi = 0.131*[#  12]+0.131*[#  34]+0.122*[#  16]+0.122*[#  30]+0.106*[#  14]
          +0.106*[#  36]+0.087*[#  18]+0.087*[#  32]+0.018*[#   5]+0.018*[#  23]
          +0.011*[#   7]+0.011*[#  25]+0.008*[#  11]+0.008*[#  33]+0.004*[#   2]
          +0.004*[#  20]+0.002*[#  15]+0.002*[#  29]+0.001*[#   8]+0.001*[#  26]
          
    |psi|^2 = 0.983
==== e(  24) =     9.26464 eV ==== 
     psi = 0.141*[#  16]+0.141*[#  30]+0.130*[#  12]+0.130*[#  34]+0.075*[#  18]
          +0.075*[#  32]+0.064*[#   5]+0.064*[#  23]+0.057*[#  14]+0.057*[#  36]
          +0.009*[#  15]+0.009*[#  29]+0.006*[#   8]+0.006*[#  26]+0.004*[#   2]
          +0.004*[#  20]+0.003*[#   7]+0.003*[#  25]+0.003*[#  11]+0.003*[#  33]
          
    |psi|^2 = 0.985
==== e(  25) =     9.78444 eV ==== 
     psi = 0.196*[#   5]+0.193*[#  23]+0.087*[#   8]+0.086*[#  26]+0.073*[#  12]
          +0.073*[#  34]+0.049*[#  16]+0.049*[#  30]+0.031*[#  18]+0.030*[#  32]
          +0.027*[#  14]+0.027*[#  36]+0.013*[#  11]+0.013*[#  33]+0.009*[#  15]
          +0.008*[#  29]+0.006*[#   7]+0.006*[#  25]+0.003*[#  10]+0.003*[#  28]
          
    |psi|^2 = 0.985
==== e(  26) =     9.81085 eV ==== 
     psi = 0.210*[#  23]+0.207*[#   5]+0.110*[#  26]+0.109*[#   8]+0.056*[#  30]
          +0.055*[#  16]+0.034*[#  34]+0.033*[#  12]+0.027*[#  32]+0.027*[#  18]
          +0.026*[#  36]+0.026*[#  14]+0.015*[#  29]+0.014*[#  15]+0.010*[#  33]
          +0.010*[#  11]+0.005*[#  10]+0.005*[#  28]+0.002*[#   7]+0.002*[#  25]
          
    |psi|^2 = 0.986

 k =   0.0000000000  0.2566001196 -0.1273334756
==== e(   1) =   -50.38778 eV ==== 
     psi = 0.969*[#   1]+0.008*[#  12]+0.008*[#  16]+0.004*[#  14]+0.004*[#  18]
          +0.002*[#  10]+0.002*[#  11]+0.002*[#  15]+0.001*[#   8]
    |psi|^2 = 1.000
==== e(   2) =   -50.38756 eV ==== 
     psi = 0.969*[#  19]+0.008*[#  30]+0.008*[#  34]+0.004*[#  32]+0.004*[#  36]
          +0.002*[#  28]+0.002*[#  29]+0.002*[#  33]+0.001*[#  26]
    |psi|^2 = 1.000
==== e(   3) =   -24.54914 eV ==== 
     psi = 0.978*[#   2]+0.004*[#  11]+0.004*[#  14]+0.004*[#  15]+0.004*[#  18]
          +0.002*[#  12]+0.002*[#  16]+0.001*[#   7]
    |psi|^2 = 1.000
==== e(   4) =   -24.54890 eV ==== 
     psi = 0.978*[#  20]+0.004*[#  29]+0.004*[#  32]+0.004*[#  33]+0.004*[#  36]
          +0.002*[#  30]+0.002*[#  34]+0.001*[#  25]
    |psi|^2 = 1.000
==== e(   5) =   -24.50831 eV ==== 
     psi = 0.980*[#   4]+0.009*[#  10]+0.003*[#  12]+0.003*[#  16]+0.001*[#   5]
          
    |psi|^2 = 1.000
==== e(   6) =   -24.50809 eV ==== 
     psi = 0.980*[#  22]+0.009*[#  28]+0.003*[#  30]+0.003*[#  34]+0.001*[#  23]
          
    |psi|^2 = 1.000
==== e(   7) =   -24.37242 eV ==== 
     psi = 0.995*[#   3]+0.002*[#  13]+0.002*[#  17]
    |psi|^2 = 1.000
==== e(   8) =   -24.37220 eV ==== 
     psi = 0.995*[#  21]+0.002*[#  31]+0.002*[#  35]
    |psi|^2 = 1.000
==== e(   9) =    -3.11974 eV ==== 
     psi = 0.305*[#  11]+0.260*[#  10]+0.231*[#  15]+0.082*[#  33]+0.036*[#  28]
          +0.013*[#   8]+0.012*[#  14]+0.009*[#  29]+0.009*[#   1]+0.008*[#  18]
          +0.007*[#   4]+0.006*[#  16]+0.004*[#  36]+0.004*[#  12]+0.003*[#  30]
          +0.003*[#   5]+0.002*[#  25]+0.002*[#  26]+0.001*[#  19]
    |psi|^2 = 0.999
==== e(  10) =    -3.11948 eV ==== 
     psi = 0.304*[#  29]+0.260*[#  28]+0.232*[#  33]+0.082*[#  15]+0.036*[#  10]
[...]
    |psi|^2 = 0.981
==== e(  22) =     7.55359 eV ==== 
     psi = 0.154*[#  32]+0.139*[#  18]+0.089*[#  30]+0.076*[#  13]+0.073*[#  16]
          +0.072*[#  35]+0.054*[#  34]+0.039*[#  12]+0.035*[#  36]+0.029*[#  26]
          +0.026*[#   6]+0.020*[#  14]+0.019*[#   8]+0.018*[#  23]+0.018*[#  29]
          +0.017*[#  24]+0.015*[#  15]+0.015*[#   7]+0.012*[#   5]+0.010*[#  33]
          +0.010*[#  25]+0.007*[#  11]+0.006*[#  17]+0.006*[#  27]+0.004*[#   9]
          +0.004*[#  21]+0.004*[#  28]+0.002*[#   3]+0.002*[#  10]+0.002*[#  31]
          +0.001*[#   2]
    |psi|^2 = 0.981
==== e(  23) =     8.44840 eV ==== 
     psi = 0.201*[#  12]+0.189*[#  16]+0.072*[#  34]+0.067*[#  14]+0.059*[#  30]
          +0.052*[#   7]+0.050*[#   6]+0.046*[#  13]+0.039*[#  17]+0.038*[#  36]
          +0.035*[#  18]+0.025*[#  11]+0.020*[#  15]+0.018*[#  35]+0.017*[#  25]
          +0.017*[#  24]+0.011*[#  31]+0.010*[#  33]+0.005*[#  29]+0.005*[#  32]
          +0.004*[#   2]+0.004*[#  23]+0.003*[#  28]+0.001*[#   5]+0.001*[#  20]
          +0.001*[#  10]
    |psi|^2 = 0.992
==== e(  24) =     8.44872 eV ==== 
     psi = 0.202*[#  30]+0.189*[#  34]+0.072*[#  16]+0.067*[#  32]+0.059*[#  12]
          +0.052*[#  25]+0.050*[#  24]+0.046*[#  31]+0.039*[#  35]+0.038*[#  18]
          +0.035*[#  36]+0.025*[#  29]+0.020*[#  33]+0.019*[#  17]+0.017*[#   7]
          +0.017*[#   6]+0.011*[#  13]+0.010*[#  15]+0.005*[#  11]+0.005*[#  14]
          +0.004*[#   5]+0.004*[#  20]+0.003*[#  10]+0.001*[#   2]+0.001*[#  23]
          +0.001*[#  28]
    |psi|^2 = 0.992
==== e(  25) =    10.06865 eV ==== 
     psi = 0.315*[#   9]+0.300*[#   8]+0.122*[#   5]+0.071*[#  18]+0.070*[#  14]
          +0.031*[#  13]+0.031*[#  17]+0.014*[#  12]+0.013*[#  16]+0.010*[#  10]
          +0.002*[#  25]+0.001*[#  26]+0.001*[#  27]+0.001*[#  32]
    |psi|^2 = 0.987
==== e(  26) =    10.06887 eV ==== 
     psi = 0.315*[#  27]+0.300*[#  26]+0.122*[#  23]+0.071*[#  36]+0.070*[#  32]
          +0.031*[#  31]+0.031*[#  35]+0.014*[#  30]+0.013*[#  34]+0.010*[#  28]
          +0.002*[#   7]+0.001*[#   8]+0.001*[#   9]+0.001*[#  14]
    |psi|^2 = 0.987

 k =  -0.3333333333 -0.5773502692  0.0424444919
==== e(   1) =   -50.35705 eV ==== 
     psi = 0.950*[#   1]+0.031*[#  10]+0.005*[#  13]+0.005*[#  14]+0.005*[#  17]
          +0.005*[#  18]+0.001*[#   5]
    |psi|^2 = 1.000
==== e(   2) =   -50.35683 eV ==== 
     psi = 0.950*[#  19]+0.031*[#  28]+0.005*[#  31]+0.005*[#  32]+0.005*[#  35]
          +0.005*[#  36]+0.001*[#  23]
    |psi|^2 = 1.000
==== e(   3) =   -24.64392 eV ==== 
     psi = 0.510*[#   4]+0.461*[#   3]+0.007*[#  12]+0.007*[#  16]+0.004*[#  11]
          +0.004*[#  15]+0.003*[#   9]+0.003*[#   8]
    |psi|^2 = 1.000
==== e(   4) =   -24.64370 eV ==== 
     psi = 0.510*[#  22]+0.461*[#  21]+0.007*[#  30]+0.007*[#  34]+0.004*[#  29]
          +0.004*[#  33]+0.003*[#  27]+0.003*[#  26]
    |psi|^2 = 1.000
==== e(   5) =   -24.59834 eV ==== 
     psi = 0.515*[#   3]+0.467*[#   4]+0.003*[#   8]+0.003*[#  13]+0.003*[#  14]
          +0.003*[#  17]+0.003*[#  18]+0.003*[#   9]
    |psi|^2 = 1.000
==== e(   6) =   -24.59811 eV ==== 
     psi = 0.515*[#  21]+0.467*[#  22]+0.003*[#  26]+0.003*[#  31]+0.003*[#  32]
          +0.003*[#  35]+0.003*[#  36]+0.003*[#  27]
    |psi|^2 = 1.000
==== e(   7) =   -24.48915 eV ==== 
     psi = 0.985*[#   2]+0.004*[#  13]+0.004*[#  14]+0.004*[#  17]+0.004*[#  18]
          
    |psi|^2 = 1.000
==== e(   8) =   -24.48892 eV ==== 
     psi = 0.985*[#  20]+0.004*[#  31]+0.004*[#  32]+0.004*[#  35]+0.004*[#  36]
          
    |psi|^2 = 1.000
==== e(   9) =    -1.54147 eV ==== 
     psi = 0.250*[#  11]+0.221*[#  15]+0.203*[#  33]+0.174*[#  29]+0.031*[#   9]
          +0.031*[#   8]+0.025*[#  27]+0.025*[#  26]+0.006*[#  12]+0.005*[#  16]
          +0.005*[#  34]+0.004*[#   3]+0.005*[#   4]+0.004*[#  30]+0.004*[#  21]
          +0.004*[#  22]
    |psi|^2 = 0.998
==== e(  10) =    -1.53960 eV ==== 
     psi = 0.252*[#  33]+0.219*[#  29]+0.199*[#  11]+0.178*[#  15]+0.031*[#  27]
          +0.031*[#  26]+0.025*[#   9]+0.025*[#   8]+0.006*[#  34]+0.006*[#  30]
          +0.005*[#  12]+0.004*[#  16]+0.004*[#  21]+0.005*[#  22]+0.004*[#   3]
          +0.004*[#   4]
    |psi|^2 = 0.998
==== e(  11) =    -1.53032 eV ==== 
     psi = 0.235*[#  15]+0.210*[#  11]+0.187*[#  29]+0.161*[#  33]+0.057*[#   7]
          +0.056*[#   6]+0.045*[#  25]+0.044*[#  24]+0.001*[#  16]
    |psi|^2 = 0.999
==== e(  12) =    -1.52856 eV ==== 
     psi = 0.241*[#  29]+0.204*[#  33]+0.186*[#  15]+0.162*[#  11]+0.057*[#  25]
          +0.056*[#  24]+0.045*[#   7]+0.044*[#   6]+0.001*[#  30]
    |psi|^2 = 0.999
==== e(  13) =     4.81644 eV ==== 
     psi = 0.113*[#   6]+0.112*[#  24]+0.112*[#   7]+0.111*[#  25]+0.068*[#  17]
          +0.068*[#  13]+0.068*[#  31]+0.068*[#  14]+0.068*[#  35]+0.068*[#  36]
          +0.068*[#  18]+0.068*[#  32]
    |psi|^2 = 0.993
==== e(  14) =     4.95879 eV ==== 
     psi = 0.118*[#  24]+0.117*[#   6]+0.117*[#  25]+0.116*[#   7]+0.066*[#  35]
          +0.066*[#  13]+0.066*[#  32]+0.066*[#  18]+0.066*[#  31]+0.066*[#  36]
          +0.065*[#  14]+0.065*[#  17]
    |psi|^2 = 0.994
==== e(  15) =     5.65756 eV ==== 
     psi = 0.092*[#   5]+0.086*[#  18]+0.086*[#  14]+0.086*[#  13]+0.085*[#  17]
          +0.085*[#  23]+0.080*[#  32]+0.079*[#  36]+0.079*[#  35]+0.079*[#  31]
          +0.052*[#  10]+0.048*[#  28]+0.010*[#  30]+0.010*[#  34]+0.010*[#  12]
          +0.010*[#  16]+0.003*[#  26]+0.003*[#   1]+0.003*[#   8]+0.002*[#  27]
          +0.002*[#   9]+0.002*[#  19]
    |psi|^2 = 0.995
==== e(  16) =     5.66251 eV ==== 
     psi = 0.092*[#  23]+0.087*[#  36]+0.087*[#  32]+0.086*[#   5]+0.086*[#  31]
          +0.085*[#  35]+0.081*[#  14]+0.080*[#  18]+0.079*[#  17]+0.079*[#  13]
          +0.053*[#  28]+0.049*[#  10]+0.009*[#  12]+0.009*[#  16]+0.008*[#  30]
          +0.008*[#  34]+0.003*[#  19]+0.002*[#   1]+0.002*[#   9]+0.002*[#   8]
          +0.002*[#  27]+0.002*[#  26]
    |psi|^2 = 0.995
==== e(  17) =     6.14219 eV ==== 
     psi = 0.101*[#  13]+0.101*[#  35]+0.101*[#  17]+0.101*[#  31]+0.099*[#  18]
          +0.099*[#  32]+0.099*[#  14]+0.099*[#  36]+0.042*[#   8]+0.042*[#  26]
          +0.040*[#   9]+0.040*[#  27]+0.004*[#   3]+0.004*[#  21]+0.004*[#   4]
          +0.004*[#  22]
    |psi|^2 = 0.981
==== e(  18) =     6.37460 eV ==== 
     psi = 0.097*[#  31]+0.097*[#  36]+0.096*[#  14]+0.096*[#  17]+0.096*[#  32]
          +0.096*[#  35]+0.095*[#  13]+0.095*[#  18]+0.049*[#   8]+0.049*[#  26]
          +0.047*[#   9]+0.047*[#  27]+0.004*[#   3]+0.004*[#  21]+0.004*[#   4]
          +0.004*[#  22]
    |psi|^2 = 0.978
==== e(  19) =     6.79737 eV ==== 
     psi = 0.139*[#  12]+0.139*[#  16]+0.131*[#  34]+0.131*[#  30]+0.056*[#   9]
          +0.054*[#   8]+0.052*[#  27]+0.051*[#  26]+0.023*[#  11]+0.023*[#  15]
          +0.021*[#  29]+0.021*[#  33]+0.017*[#  36]+0.016*[#  31]+0.016*[#  14]
          +0.015*[#  17]+0.015*[#  32]+0.015*[#  35]+0.014*[#  18]+0.014*[#  13]
          +0.004*[#  23]+0.004*[#   5]+0.003*[#   4]+0.003*[#   3]+0.003*[#  22]
          +0.003*[#  28]+0.002*[#  10]+0.002*[#  21]
    |psi|^2 = 0.992
==== e(  20) =     6.80133 eV ==== 
     psi = 0.139*[#  34]+0.139*[#  30]+0.130*[#  12]+0.130*[#  16]+0.056*[#  27]
          +0.053*[#  26]+0.052*[#   9]+0.050*[#   8]+0.023*[#  29]+0.023*[#  33]
          +0.021*[#  11]+0.021*[#  15]+0.017*[#  13]+0.017*[#  18]+0.016*[#  35]
          +0.016*[#  32]+0.016*[#  17]+0.015*[#  14]+0.015*[#  31]+0.014*[#  36]
          +0.005*[#   5]+0.004*[#  23]+0.003*[#  10]+0.003*[#  28]+0.003*[#  22]
          +0.003*[#   4]+0.003*[#  21]+0.002*[#   3]
    |psi|^2 = 0.992
==== e(  21) =     7.34483 eV ==== 
     psi = 0.090*[#  18]+0.089*[#  13]+0.088*[#  14]+0.088*[#  17]+0.087*[#  32]
          +0.087*[#  35]+0.086*[#  31]+0.086*[#  36]+0.045*[#  30]+0.045*[#  34]
          +0.044*[#  12]+0.044*[#  16]+0.009*[#  24]+0.009*[#  25]+0.009*[#   6]
          +0.009*[#   7]+0.008*[#  27]+0.008*[#   9]+0.008*[#  26]+0.008*[#   8]
          +0.006*[#  29]+0.006*[#  33]+0.006*[#  11]+0.006*[#  15]+0.005*[#   2]
          +0.005*[#  20]+0.001*[#   5]+0.001*[#  23]
    |psi|^2 = 0.989
==== e(  22) =     7.35290 eV ==== 
     psi = 0.091*[#  36]+0.090*[#  31]+0.090*[#  32]+0.090*[#  35]+0.089*[#  14]
          +0.088*[#  17]+0.088*[#  18]+0.087*[#  13]+0.043*[#  12]+0.043*[#  16]
          +0.042*[#  30]+0.042*[#  34]+0.008*[#   9]+0.008*[#   6]+0.008*[#   7]
          +0.008*[#   8]+0.008*[#  27]+0.008*[#  24]+0.008*[#  25]+0.008*[#  26]
          +0.006*[#  11]+0.006*[#  15]+0.006*[#  29]+0.006*[#  33]+0.006*[#  20]
          +0.005*[#   2]+0.001*[#   5]+0.001*[#  23]
    |psi|^2 = 0.989
==== e(  23) =     8.28828 eV ==== 
     psi = 0.137*[#  16]+0.137*[#  12]+0.129*[#  30]+0.129*[#  34]+0.055*[#   7]
          +0.055*[#   6]+0.052*[#  25]+0.051*[#  24]+0.022*[#  11]+0.022*[#  15]
          +0.021*[#  29]+0.021*[#  33]+0.021*[#  31]+0.020*[#  35]+0.020*[#  36]
          +0.020*[#  32]+0.019*[#  17]+0.019*[#  13]+0.019*[#  14]+0.019*[#  18]
          +0.001*[#   2]+0.001*[#  20]
    |psi|^2 = 0.994
==== e(  24) =     8.29160 eV ==== 
     psi = 0.135*[#  30]+0.135*[#  34]+0.127*[#  16]+0.127*[#  12]+0.054*[#  25]
          +0.054*[#  24]+0.051*[#   7]+0.051*[#   6]+0.022*[#  14]+0.022*[#  18]
          +0.022*[#  29]+0.022*[#  33]+0.022*[#  13]+0.022*[#  17]+0.021*[#  32]
          +0.021*[#  36]+0.020*[#  11]+0.021*[#  15]+0.020*[#  31]+0.020*[#  35]
          +0.001*[#   2]+0.001*[#  20]
    |psi|^2 = 0.993
==== e(  25) =    10.27915 eV ==== 
     psi = 0.202*[#   8]+0.202*[#   9]+0.202*[#  26]+0.201*[#  27]+0.023*[#  13]
          +0.023*[#  17]+0.023*[#  31]+0.023*[#  35]+0.022*[#  14]+0.022*[#  18]
          +0.022*[#  32]+0.022*[#  36]
    |psi|^2 = 0.986
==== e(  26) =    10.42612 eV ==== 
     psi = 0.197*[#  26]+0.197*[#   8]+0.196*[#  27]+0.196*[#   9]+0.026*[#  17]
          +0.026*[#  31]+0.026*[#  13]+0.026*[#  35]+0.025*[#  14]+0.025*[#  32]
          +0.025*[#  36]+0.025*[#  18]
    |psi|^2 = 0.993

 k =  -0.3333333333 -0.5773502692  0.0848889837
==== e(   1) =   -50.35705 eV ==== 
     psi = 0.950*[#   1]+0.031*[#  10]+0.005*[#  13]+0.005*[#  14]+0.005*[#  17]
          +0.005*[#  18]+0.001*[#   5]
    |psi|^2 = 1.000
==== e(   2) =   -50.35683 eV ==== 
     psi = 0.950*[#  19]+0.031*[#  28]+0.005*[#  31]+0.005*[#  32]+0.005*[#  35]
          +0.005*[#  36]+0.001*[#  23]
    |psi|^2 = 1.000
==== e(   3) =   -24.64392 eV ==== 
     psi = 0.510*[#   4]+0.461*[#   3]+0.007*[#  12]+0.007*[#  16]+0.004*[#  11]
          +0.004*[#  15]+0.003*[#   9]+0.003*[#   8]
    |psi|^2 = 1.000
==== e(   4) =   -24.64370 eV ==== 
     psi = 0.510*[#  22]+0.461*[#  21]+0.007*[#  30]+0.007*[#  34]+0.004*[#  29]
          +0.004*[#  33]+0.003*[#  27]+0.003*[#  26]
    |psi|^2 = 1.000
==== e(   5) =   -24.59833 eV ==== 
     psi = 0.514*[#   3]+0.465*[#   4]+0.003*[#   8]+0.003*[#  13]+0.003*[#  14]
          +0.003*[#  17]+0.003*[#  18]+0.003*[#   9]+0.002*[#  21]+0.001*[#  22]
          
    |psi|^2 = 1.000
==== e(   6) =   -24.59811 eV ==== 
     psi = 0.514*[#  21]+0.465*[#  22]+0.003*[#  26]+0.003*[#  31]+0.003*[#  32]
          +0.003*[#  35]+0.003*[#  36]+0.003*[#  27]+0.002*[#   3]+0.001*[#   4]
          
    |psi|^2 = 1.000
==== e(   7) =   -24.48918 eV ==== 
     psi = 0.985*[#   2]+0.004*[#  13]+0.004*[#  14]+0.004*[#  17]+0.004*[#  18]
          
    |psi|^2 = 1.000
==== e(   8) =   -24.48895 eV ==== 
     psi = 0.985*[#  20]+0.004*[#  31]+0.004*[#  32]+0.004*[#  35]+0.004*[#  36]
          
    |psi|^2 = 1.000
==== e(   9) =    -1.54109 eV ==== 
     psi = 0.270*[#  11]+0.233*[#  15]+0.189*[#  33]+0.157*[#  29]+0.033*[#   9]
          +0.033*[#   8]+0.023*[#  27]+0.023*[#  26]+0.006*[#  12]+0.006*[#  16]
          +0.005*[#   3]+0.005*[#   4]+0.004*[#  34]+0.004*[#  30]+0.003*[#  21]
          +0.003*[#  22]
    |psi|^2 = 0.998
==== e(  10) =    -1.53999 eV ==== 
     psi = 0.266*[#  33]+0.236*[#  29]+0.179*[#  11]+0.167*[#  15]+0.033*[#  27]
          +0.033*[#  26]+0.023*[#   9]+0.023*[#   8]+0.006*[#  34]+0.006*[#  30]
          +0.005*[#  21]+0.005*[#  22]+0.004*[#  12]+0.004*[#  16]+0.003*[#   3]
          +0.003*[#   4]
    |psi|^2 = 0.998
==== e(  11) =    -1.52995 eV ==== 
     psi = 0.249*[#  15]+0.228*[#  11]+0.166*[#  29]+0.150*[#  33]+0.061*[#   7]
          +0.060*[#   6]+0.040*[#  25]+0.039*[#  24]+0.001*[#  16]
    |psi|^2 = 0.999
==== e(  12) =    -1.52892 eV ==== 
     psi = 0.261*[#  29]+0.216*[#  33]+0.172*[#  15]+0.144*[#  11]+0.061*[#  25]
          +0.060*[#  24]+0.040*[#   7]+0.039*[#   6]+0.001*[#  30]
    |psi|^2 = 0.999
==== e(  13) =     4.84314 eV ==== 
     psi = 0.114*[#   6]+0.113*[#  24]+0.113*[#   7]+0.112*[#  25]+0.068*[#  17]
          +0.068*[#  13]+0.068*[#  14]+0.068*[#  31]+0.068*[#  35]+0.068*[#  36]
          +0.067*[#  18]+0.067*[#  32]
    |psi|^2 = 0.993
==== e(  14) =     4.92477 eV ==== 
     psi = 0.116*[#  24]+0.116*[#   6]+0.115*[#  25]+0.115*[#   7]+0.067*[#  35]
          +0.067*[#  13]+0.067*[#  32]+0.066*[#  18]+0.066*[#  31]+0.066*[#  36]
          +0.066*[#  17]+0.066*[#  14]
    |psi|^2 = 0.994
==== e(  15) =     5.67346 eV ==== 
     psi = 0.096*[#   5]+0.090*[#  18]+0.090*[#  14]+0.090*[#  13]+0.089*[#  17]
          +0.085*[#  23]+0.079*[#  32]+0.079*[#  35]+0.079*[#  36]+0.078*[#  31]
          +0.055*[#  10]+0.048*[#  28]+0.007*[#  30]+0.007*[#  34]+0.006*[#  12]
          +0.006*[#  16]+0.003*[#   1]+0.002*[#  19]+0.001*[#  26]+0.001*[#   8]
          
    |psi|^2 = 0.995
==== e(  16) =     5.67648 eV ==== 
     psi = 0.097*[#  23]+0.091*[#  36]+0.090*[#  32]+0.090*[#  31]+0.089*[#  35]
          +0.085*[#   5]+0.080*[#  14]+0.079*[#  18]+0.079*[#  17]+0.078*[#  13]
          +0.055*[#  28]+0.049*[#  10]+0.006*[#  12]+0.006*[#  16]+0.005*[#  30]
          +0.005*[#  34]+0.003*[#  19]+0.002*[#   1]
    |psi|^2 = 0.995
==== e(  17) =     6.19489 eV ==== 
     psi = 0.100*[#  13]+0.100*[#  35]+0.099*[#  17]+0.099*[#  31]+0.099*[#  18]
          +0.099*[#  32]+0.098*[#  14]+0.097*[#  36]+0.043*[#   8]+0.043*[#  26]
          +0.041*[#   9]+0.041*[#  27]+0.004*[#   3]+0.004*[#  21]+0.004*[#   4]
          +0.004*[#  22]
    |psi|^2 = 0.981
==== e(  18) =     6.32850 eV ==== 
     psi = 0.098*[#  31]+0.098*[#  17]+0.097*[#  36]+0.097*[#  14]+0.096*[#  35]
          +0.096*[#  13]+0.096*[#  32]+0.096*[#  18]+0.048*[#  26]+0.047*[#   8]
          +0.045*[#  27]+0.045*[#   9]+0.004*[#   3]+0.004*[#  21]+0.004*[#   4]
          +0.004*[#  22]
    |psi|^2 = 0.978
==== e(  19) =     6.68938 eV ==== 
     psi = 0.139*[#  12]+0.138*[#  16]+0.127*[#  30]+0.127*[#  34]+0.053*[#   9]
          +0.051*[#   8]+0.048*[#  27]+0.047*[#  26]+0.023*[#  36]+0.023*[#  31]
          +0.021*[#  14]+0.021*[#  11]+0.021*[#  15]+0.021*[#  17]+0.020*[#  32]
          +0.020*[#  35]+0.019*[#  29]+0.019*[#  33]+0.019*[#  18]+0.018*[#  13]
          +0.003*[#   4]+0.003*[#   3]+0.003*[#  22]+0.002*[#  21]+0.001*[#   5]
          +0.001*[#  20]+0.001*[#  23]+0.001*[#   2]
    |psi|^2 = 0.993
==== e(  20) =     6.69208 eV ==== 
     psi = 0.138*[#  30]+0.138*[#  34]+0.126*[#  12]+0.126*[#  16]+0.053*[#  27]
          +0.051*[#  26]+0.049*[#   9]+0.046*[#   8]+0.023*[#  13]+0.023*[#  18]
          +0.022*[#  35]+0.021*[#  32]+0.021*[#  33]+0.021*[#  17]+0.021*[#  29]
          +0.020*[#  14]+0.019*[#  11]+0.019*[#  15]+0.019*[#  31]+0.019*[#  36]
          +0.003*[#  22]+0.003*[#   4]+0.003*[#  21]+0.002*[#   3]+0.002*[#   5]
          +0.001*[#  23]+0.001*[#   2]+0.001*[#  10]+0.001*[#  20]
    |psi|^2 = 0.993
==== e(  21) =     7.52145 eV ==== 
     psi = 0.093*[#  18]+0.093*[#  13]+0.092*[#  14]+0.091*[#  17]+0.090*[#  32]
          +0.089*[#  35]+0.088*[#  36]+0.088*[#  31]+0.037*[#  30]+0.037*[#  34]
          +0.036*[#  12]+0.036*[#  16]+0.013*[#  27]+0.013*[#  26]+0.013*[#   9]
          +0.013*[#   8]+0.008*[#  29]+0.008*[#  33]+0.008*[#  11]+0.008*[#  15]
          +0.006*[#   2]+0.005*[#  20]+0.005*[#  24]+0.005*[#  25]+0.005*[#   6]
          +0.005*[#   7]
    |psi|^2 = 0.987
==== e(  22) =     7.52688 eV ==== 
     psi = 0.094*[#  36]+0.094*[#  31]+0.093*[#  32]+0.093*[#  35]+0.091*[#  14]
          +0.090*[#  17]+0.090*[#  18]+0.089*[#  13]+0.036*[#  12]+0.035*[#  16]
          +0.034*[#  30]+0.034*[#  34]+0.013*[#   9]+0.013*[#   8]+0.013*[#  27]
          +0.012*[#  26]+0.008*[#  11]+0.008*[#  15]+0.007*[#  29]+0.007*[#  33]
          +0.006*[#  20]+0.006*[#   2]+0.004*[#   6]+0.004*[#   7]+0.004*[#  24]
          +0.004*[#  25]
    |psi|^2 = 0.987
==== e(  23) =     8.20115 eV ==== 
     psi = 0.153*[#  16]+0.153*[#  12]+0.140*[#  30]+0.140*[#  34]+0.059*[#   7]
          +0.059*[#   6]+0.054*[#  25]+0.054*[#  24]+0.023*[#  11]+0.023*[#  15]
          +0.021*[#  29]+0.021*[#  33]+0.011*[#  31]+0.011*[#  36]+0.011*[#  35]
          +0.011*[#  32]+0.010*[#  17]+0.010*[#  14]+0.010*[#  13]+0.010*[#  18]
          +0.002*[#  23]+0.002*[#   5]+0.001*[#  28]+0.001*[#  10]
    |psi|^2 = 0.995
==== e(  24) =     8.20408 eV ==== 
     psi = 0.152*[#  30]+0.152*[#  34]+0.139*[#  16]+0.139*[#  12]+0.058*[#  25]
          +0.058*[#  24]+0.053*[#   7]+0.053*[#   6]+0.023*[#  29]+0.023*[#  33]
          +0.021*[#  11]+0.021*[#  15]+0.012*[#  14]+0.012*[#  18]+0.012*[#  13]
          +0.012*[#  17]+0.011*[#  32]+0.011*[#  36]+0.011*[#  31]+0.011*[#  35]
          +0.002*[#   5]+0.002*[#  23]+0.001*[#  10]+0.001*[#  28]
    |psi|^2 = 0.995
==== e(  25) =    10.30548 eV ==== 
     psi = 0.201*[#   8]+0.201*[#   9]+0.200*[#  26]+0.200*[#  27]+0.023*[#  13]
          +0.023*[#  17]+0.023*[#  35]+0.023*[#  31]+0.023*[#  18]+0.023*[#  14]
          +0.023*[#  32]+0.023*[#  36]
    |psi|^2 = 0.987
==== e(  26) =    10.38957 eV ==== 
     psi = 0.198*[#  26]+0.197*[#  27]+0.197*[#   8]+0.196*[#   9]+0.025*[#  31]
          +0.025*[#  17]+0.025*[#  35]+0.025*[#  13]+0.025*[#  36]+0.025*[#  14]
          +0.025*[#  32]+0.024*[#  18]
    |psi|^2 = 0.991

Lowdin Charges: 

     Atom #   1: total charge =  13.7064, s =  2.5004, 
     Atom #   1: total charge =  13.7064, p =  5.9948, pz=  1.9992, px=  1.9979, py=  1.9978, 
     Atom #   1: total charge =  13.7064, d =  5.2112, dz2=  1.1548, dxz=  0.9551, dyz=  0.9565, dx2-y2=  1.0743, dxy=  1.0706, 
     Atom #   2: total charge =   6.0499, s =  1.7668, 
     Atom #   2: total charge =   6.0499, p =  4.2831, pz=  1.5322, px=  1.3759, py=  1.3749, 
     Atom #   2: total charge =   6.0499, d =  0.0000, dz2=  0.0000, dxz=  0.0000, dyz=  0.0000, dx2-y2=  0.0000, dxy=  0.0000, 
     Atom #   3: total charge =   6.0496, s =  1.7668, 
     Atom #   3: total charge =   6.0496, p =  4.2828, pz=  1.5322, px=  1.3758, py=  1.3748, 
     Atom #   3: total charge =   6.0496, d =  0.0000, dz2=  0.0000, dxz=  0.0000, dyz=  0.0000, dx2-y2=  0.0000, dxy=  0.0000, 
     Atom #   4: total charge =  13.7064, s =  2.5004, 
     Atom #   4: total charge =  13.7064, p =  5.9948, pz=  1.9992, px=  1.9979, py=  1.9978, 
     Atom #   4: total charge =  13.7064, d =  5.2111, dz2=  1.1548, dxz=  0.9551, dyz=  0.9565, dx2-y2=  1.0742, dxy=  1.0706, 
     Atom #   5: total charge =   6.0497, s =  1.7668, 
     Atom #   5: total charge =   6.0497, p =  4.2828, pz=  1.5322, px=  1.3758, py=  1.3748, 
     Atom #   5: total charge =   6.0497, d =  0.0000, dz2=  0.0000, dxz=  0.0000, dyz=  0.0000, dx2-y2=  0.0000, dxy=  0.0000, 
     Atom #   6: total charge =   6.0500, s =  1.7668, 
     Atom #   6: total charge =   6.0500, p =  4.2831, pz=  1.5322, px=  1.3760, py=  1.3749, 
     Atom #   6: total charge =   6.0500, d =  0.0000, dz2=  0.0000, dxz=  0.0000, dyz=  0.0000, dx2-y2=  0.0000, dxy=  0.0000, 
     Spilling Parameter:   0.0075
 
     PROJWFC      :     34.64s CPU     36.52s WALL

 
   This run was terminated on:  14:16:38  15Apr2024            

=------------------------------------------------------------------------------=
   JOB DONE.
=------------------------------------------------------------------------------=
