
     Program PWSCF v.7.0 starts on 16Apr2025 at  9:40: 8 

     This program is part of the open-source Quantum ESPRESSO suite
     for quantum simulation of materials; please cite
         "P. Giannozzi et al., J. Phys.:Condens. Matter 21 395502 (2009);
         "P. Giannozzi et al., J. Phys.:Condens. Matter 29 465901 (2017);
         "P. Giannozzi et al., J. Chem. Phys. 152 154105 (2020);
          URL http://www.quantum-espresso.org", 
     in publications or presentations arising from this work. More details at
     http://www.quantum-espresso.org/quote

     Parallel version (MPI & OpenMP), running on       1 processor cores
     Number of MPI processes:                 1
     Threads/MPI process:                     1

     MPI processes distributed on     1 nodes
     0 MiB available memory on the printing compute node when the environment starts

     Waiting for input...
     Reading input from standard input

     Current dimensions of program PWSCF are:
     Max number of different atomic species (ntypx) = 10
     Max number of k-points (npk) =  40000
     Max angular momentum in pseudopotentials (lmaxx) =  4

     Subspace diagonalization in iterative solution of the eigenvalue problem:
     a serial algorithm will be used


     G-vector sticks info
     --------------------
     sticks:   dense  smooth     PW     G-vecs:    dense   smooth      PW
     Sum         361     361    109                38019    38019    6497

     Using Slab Decomposition



     bravais-lattice index     =            4
     lattice parameter (alat)  =       4.6350  a.u.
     unit-cell volume          =     603.6398 (a.u.)^3
     number of atoms/cell      =            2
     number of atomic types    =            1
     number of electrons       =         8.00
     number of Kohn-Sham states=            8
     kinetic-energy cutoff     =      60.0000  Ry
     charge density cutoff     =     240.0000  Ry
     scf convergence threshold =      1.0E-06
     mixing beta               =       0.7000
     number of iterations used =            8  plain     mixing
     Exchange-correlation= PBE
                           (   1   4   3   4   0   0   0)

     celldm(1)=   4.635000  celldm(2)=   0.000000  celldm(3)=   7.000000
     celldm(4)=   0.000000  celldm(5)=   0.000000  celldm(6)=   0.000000

     crystal axes: (cart. coord. in units of alat)
               a(1) = (   1.000000   0.000000   0.000000 )  
               a(2) = (  -0.500000   0.866025   0.000000 )  
               a(3) = (   0.000000   0.000000   7.000000 )  

     reciprocal axes: (cart. coord. in units 2 pi/alat)
               b(1) = (  1.000000  0.577350 -0.000000 )  
               b(2) = (  0.000000  1.154701  0.000000 )  
               b(3) = (  0.000000 -0.000000  0.142857 )  


     PseudoPot. # 1 for C  read from file:
     ../../../../Pseudo/PBE/C.UPF
     MD5 check sum: 34a24e64c0a39f27c6c36b90a16ac686
     Pseudo is Norm-conserving + core correction, Zval =  4.0
     Generated using ONCVPSP code by D. R. Hamann
     Using radial grid of 1248 points,  4 beta functions with: 
                l(1) =   0
                l(2) =   0
                l(3) =   1
                l(4) =   1

     atomic species   valence    mass     pseudopotential
        C              4.00    12.01100     C ( 1.00)

     24 Sym. Ops., with inversion, found (12 have fractional translation)


                                    s                        frac. trans.

      isym =  1     identity                                     

 cryst.   s( 1) = (     1          0          0      )
                  (     0          1          0      )
                  (     0          0          1      )

 cart.    s( 1) = (  1.0000000  0.0000000  0.0000000 )
                  (  0.0000000  1.0000000  0.0000000 )
                  (  0.0000000  0.0000000  1.0000000 )


      isym =  2     180 deg rotation - cart. axis [0,0,1]        

 cryst.   s( 2) = (    -1          0          0      )    f =( -0.3333333 )
                  (     0         -1          0      )       (  0.3333333 )
                  (     0          0          1      )       (  0.0000000 )

 cart.    s( 2) = ( -1.0000000  0.0000000  0.0000000 )    f =( -0.5000000 )
                  (  0.0000000 -1.0000000  0.0000000 )       (  0.2886751 )
                  (  0.0000000  0.0000000  1.0000000 )       (  0.0000000 )


      isym =  3     180 deg rotation - cart. axis [0,1,0]        

 cryst.   s( 3) = (    -1          0          0      )
                  (     1          1          0      )
                  (     0          0         -1      )

 cart.    s( 3) = ( -1.0000000  0.0000000  0.0000000 )
                  (  0.0000000  1.0000000  0.0000000 )
                  (  0.0000000  0.0000000 -1.0000000 )


      isym =  4     180 deg rotation - cart. axis [1,0,0]        

 cryst.   s( 4) = (     1          0          0      )    f =( -0.3333333 )
                  (    -1         -1          0      )       (  0.3333333 )
                  (     0          0         -1      )       (  0.0000000 )

 cart.    s( 4) = (  1.0000000  0.0000000  0.0000000 )    f =( -0.5000000 )
                  (  0.0000000 -1.0000000  0.0000000 )       (  0.2886751 )
                  (  0.0000000  0.0000000 -1.0000000 )       (  0.0000000 )


      isym =  5      60 deg rotation - cryst. axis [0,0,1]       

 cryst.   s( 5) = (     1          1          0      )    f =( -0.3333333 )
                  (    -1          0          0      )       (  0.3333333 )
                  (     0          0          1      )       (  0.0000000 )

 cart.    s( 5) = (  0.5000000 -0.8660254  0.0000000 )    f =( -0.5000000 )
                  (  0.8660254  0.5000000  0.0000000 )       (  0.2886751 )
                  (  0.0000000  0.0000000  1.0000000 )       (  0.0000000 )


      isym =  6      60 deg rotation - cryst. axis [0,0,-1]      

 cryst.   s( 6) = (     0         -1          0      )    f =( -0.3333333 )
                  (     1          1          0      )       (  0.3333333 )
                  (     0          0          1      )       (  0.0000000 )

 cart.    s( 6) = (  0.5000000  0.8660254  0.0000000 )    f =( -0.5000000 )
                  ( -0.8660254  0.5000000  0.0000000 )       (  0.2886751 )
                  (  0.0000000  0.0000000  1.0000000 )       (  0.0000000 )


      isym =  7     120 deg rotation - cryst. axis [0,0,1]       

 cryst.   s( 7) = (     0          1          0      )
                  (    -1         -1          0      )
                  (     0          0          1      )

 cart.    s( 7) = ( -0.5000000 -0.8660254  0.0000000 )
                  (  0.8660254 -0.5000000  0.0000000 )
                  (  0.0000000  0.0000000  1.0000000 )


      isym =  8     120 deg rotation - cryst. axis [0,0,-1]      

 cryst.   s( 8) = (    -1         -1          0      )
                  (     1          0          0      )
                  (     0          0          1      )

 cart.    s( 8) = ( -0.5000000  0.8660254  0.0000000 )
                  ( -0.8660254 -0.5000000  0.0000000 )
                  (  0.0000000  0.0000000  1.0000000 )


      isym =  9     180 deg rotation - cryst. axis [1,-1,0]      

 cryst.   s( 9) = (     0         -1          0      )
                  (    -1          0          0      )
                  (     0          0         -1      )

 cart.    s( 9) = (  0.5000000 -0.8660254  0.0000000 )
                  ( -0.8660254 -0.5000000  0.0000000 )
                  (  0.0000000  0.0000000 -1.0000000 )


      isym = 10     180 deg rotation - cryst. axis [2,1,0]       

 cryst.   s(10) = (     1          1          0      )
                  (     0         -1          0      )
                  (     0          0         -1      )

 cart.    s(10) = (  0.5000000  0.8660254  0.0000000 )
                  (  0.8660254 -0.5000000  0.0000000 )
                  (  0.0000000  0.0000000 -1.0000000 )


      isym = 11     180 deg rotation - cryst. axis [0,1,0]       

 cryst.   s(11) = (    -1         -1          0      )    f =( -0.3333333 )
                  (     0          1          0      )       (  0.3333333 )
                  (     0          0         -1      )       (  0.0000000 )

 cart.    s(11) = ( -0.5000000 -0.8660254  0.0000000 )    f =( -0.5000000 )
                  ( -0.8660254  0.5000000  0.0000000 )       (  0.2886751 )
                  (  0.0000000  0.0000000 -1.0000000 )       (  0.0000000 )


      isym = 12     180 deg rotation - cryst. axis [1,1,0]       

 cryst.   s(12) = (     0          1          0      )    f =( -0.3333333 )
                  (     1          0          0      )       (  0.3333333 )
                  (     0          0         -1      )       (  0.0000000 )

 cart.    s(12) = ( -0.5000000  0.8660254  0.0000000 )    f =( -0.5000000 )
                  (  0.8660254  0.5000000  0.0000000 )       (  0.2886751 )
                  (  0.0000000  0.0000000 -1.0000000 )       (  0.0000000 )


      isym = 13     inversion                                    

 cryst.   s(13) = (    -1          0          0      )    f =( -0.3333333 )
                  (     0         -1          0      )       (  0.3333333 )
                  (     0          0         -1      )       (  0.0000000 )

 cart.    s(13) = ( -1.0000000  0.0000000  0.0000000 )    f =( -0.5000000 )
                  (  0.0000000 -1.0000000  0.0000000 )       (  0.2886751 )
                  (  0.0000000  0.0000000 -1.0000000 )       (  0.0000000 )


      isym = 14     inv. 180 deg rotation - cart. axis [0,0,1]   

 cryst.   s(14) = (     1          0          0      )
                  (     0          1          0      )
                  (     0          0         -1      )

 cart.    s(14) = (  1.0000000  0.0000000  0.0000000 )
                  (  0.0000000  1.0000000  0.0000000 )
                  (  0.0000000  0.0000000 -1.0000000 )


      isym = 15     inv. 180 deg rotation - cart. axis [0,1,0]   

 cryst.   s(15) = (     1          0          0      )    f =( -0.3333333 )
                  (    -1         -1          0      )       (  0.3333333 )
                  (     0          0          1      )       (  0.0000000 )

 cart.    s(15) = (  1.0000000  0.0000000  0.0000000 )    f =( -0.5000000 )
                  (  0.0000000 -1.0000000  0.0000000 )       (  0.2886751 )
                  (  0.0000000  0.0000000  1.0000000 )       (  0.0000000 )


      isym = 16     inv. 180 deg rotation - cart. axis [1,0,0]   

 cryst.   s(16) = (    -1          0          0      )
                  (     1          1          0      )
                  (     0          0          1      )

 cart.    s(16) = ( -1.0000000  0.0000000  0.0000000 )
                  (  0.0000000  1.0000000  0.0000000 )
                  (  0.0000000  0.0000000  1.0000000 )


      isym = 17     inv.  60 deg rotation - cryst. axis [0,0,1]  

 cryst.   s(17) = (    -1         -1          0      )
                  (     1          0          0      )
                  (     0          0         -1      )

 cart.    s(17) = ( -0.5000000  0.8660254  0.0000000 )
                  ( -0.8660254 -0.5000000  0.0000000 )
                  (  0.0000000  0.0000000 -1.0000000 )


      isym = 18     inv.  60 deg rotation - cryst. axis [0,0,-1] 

 cryst.   s(18) = (     0          1          0      )
                  (    -1         -1          0      )
                  (     0          0         -1      )

 cart.    s(18) = ( -0.5000000 -0.8660254  0.0000000 )
                  (  0.8660254 -0.5000000  0.0000000 )
                  (  0.0000000  0.0000000 -1.0000000 )


      isym = 19     inv. 120 deg rotation - cryst. axis [0,0,1]  

 cryst.   s(19) = (     0         -1          0      )    f =( -0.3333333 )
                  (     1          1          0      )       (  0.3333333 )
                  (     0          0         -1      )       (  0.0000000 )

 cart.    s(19) = (  0.5000000  0.8660254  0.0000000 )    f =( -0.5000000 )
                  ( -0.8660254  0.5000000  0.0000000 )       (  0.2886751 )
                  (  0.0000000  0.0000000 -1.0000000 )       (  0.0000000 )


      isym = 20     inv. 120 deg rotation - cryst. axis [0,0,-1] 

 cryst.   s(20) = (     1          1          0      )    f =( -0.3333333 )
                  (    -1          0          0      )       (  0.3333333 )
                  (     0          0         -1      )       (  0.0000000 )

 cart.    s(20) = (  0.5000000 -0.8660254  0.0000000 )    f =( -0.5000000 )
                  (  0.8660254  0.5000000  0.0000000 )       (  0.2886751 )
                  (  0.0000000  0.0000000 -1.0000000 )       (  0.0000000 )


      isym = 21     inv. 180 deg rotation - cryst. axis [1,-1,0] 

 cryst.   s(21) = (     0          1          0      )    f =( -0.3333333 )
                  (     1          0          0      )       (  0.3333333 )
                  (     0          0          1      )       (  0.0000000 )

 cart.    s(21) = ( -0.5000000  0.8660254  0.0000000 )    f =( -0.5000000 )
                  (  0.8660254  0.5000000  0.0000000 )       (  0.2886751 )
                  (  0.0000000  0.0000000  1.0000000 )       (  0.0000000 )


      isym = 22     inv. 180 deg rotation - cryst. axis [2,1,0]  

 cryst.   s(22) = (    -1         -1          0      )    f =( -0.3333333 )
                  (     0          1          0      )       (  0.3333333 )
                  (     0          0          1      )       (  0.0000000 )

 cart.    s(22) = ( -0.5000000 -0.8660254  0.0000000 )    f =( -0.5000000 )
                  ( -0.8660254  0.5000000  0.0000000 )       (  0.2886751 )
                  (  0.0000000  0.0000000  1.0000000 )       (  0.0000000 )


      isym = 23     inv. 180 deg rotation - cryst. axis [0,1,0]  

 cryst.   s(23) = (     1          1          0      )
                  (     0         -1          0      )
                  (     0          0          1      )

 cart.    s(23) = (  0.5000000  0.8660254  0.0000000 )
                  (  0.8660254 -0.5000000  0.0000000 )
                  (  0.0000000  0.0000000  1.0000000 )


      isym = 24     inv. 180 deg rotation - cryst. axis [1,1,0]  

 cryst.   s(24) = (     0         -1          0      )
                  (    -1          0          0      )
                  (     0          0          1      )

 cart.    s(24) = (  0.5000000 -0.8660254  0.0000000 )
                  ( -0.8660254 -0.5000000  0.0000000 )
                  (  0.0000000  0.0000000  1.0000000 )


     point group D_6h(6/mmm)
     there are 12 classes
     the character table:

       E     2C6   2C3   C2    3C2'  3C2'' i     2S3   2S6   s_h   3s_d  3s_v 
A_1g   1.00  1.00  1.00  1.00  1.00  1.00  1.00  1.00  1.00  1.00  1.00  1.00
A_2g   1.00  1.00  1.00  1.00 -1.00 -1.00  1.00  1.00  1.00  1.00 -1.00 -1.00
B_1g   1.00 -1.00  1.00 -1.00  1.00 -1.00  1.00 -1.00  1.00 -1.00  1.00 -1.00
B_2g   1.00 -1.00  1.00 -1.00 -1.00  1.00  1.00 -1.00  1.00 -1.00 -1.00  1.00
E_1g   2.00  1.00 -1.00 -2.00  0.00  0.00  2.00  1.00 -1.00 -2.00  0.00  0.00
E_2g   2.00 -1.00 -1.00  2.00  0.00  0.00  2.00 -1.00 -1.00  2.00  0.00  0.00
A_1u   1.00  1.00  1.00  1.00  1.00  1.00 -1.00 -1.00 -1.00 -1.00 -1.00 -1.00
A_2u   1.00  1.00  1.00  1.00 -1.00 -1.00 -1.00 -1.00 -1.00 -1.00  1.00  1.00
B_1u   1.00 -1.00  1.00 -1.00  1.00 -1.00 -1.00  1.00 -1.00  1.00 -1.00  1.00
B_2u   1.00 -1.00  1.00 -1.00 -1.00  1.00 -1.00  1.00 -1.00  1.00  1.00 -1.00
E_1u   2.00  1.00 -1.00 -2.00  0.00  0.00 -2.00 -1.00  1.00  2.00  0.00  0.00
E_2u   2.00 -1.00 -1.00  2.00  0.00  0.00 -2.00  1.00  1.00 -2.00  0.00  0.00

     the symmetry operations in each class and the name of the first element:

     E        1
          identity                                               
     2C6      5    6
           60 deg rotation - cryst. axis [0,0,1]                 
     2C3      7    8
          120 deg rotation - cryst. axis [0,0,1]                 
     C2       2
          180 deg rotation - cart. axis [0,0,1]                  
     3C2'     4   12   11
          180 deg rotation - cart. axis [1,0,0]                  
     3C2''    3    9   10
          180 deg rotation - cart. axis [0,1,0]                  
     i       13
          inversion                                              
     2S3     17   18
          inv.  60 deg rotation - cryst. axis [0,0,1]            
     2S6     19   20
          inv. 120 deg rotation - cryst. axis [0,0,1]            
     s_h     14
          inv. 180 deg rotation - cart. axis [0,0,1]             
     3s_d    16   24   23
          inv. 180 deg rotation - cart. axis [1,0,0]             
     3s_v    15   21   22
          inv. 180 deg rotation - cart. axis [0,1,0]             

   Cartesian axes

     site n.     atom                  positions (alat units)
         1           C   tau(   1) = (   0.0000000   0.0000000   0.0000000  )
         2           C   tau(   2) = (  -0.0000000   0.5773503   0.0000000  )

   Crystallographic axes

     site n.     atom                  positions (cryst. coord.)
         1           C   tau(   1) = (  0.0000000  0.0000000  0.0000000  )
         2           C   tau(   2) = (  0.3333333  0.6666667  0.0000000  )

     number of k points=    30  Marzari-Vanderbilt smearing, width (Ry)=  0.0050
                       cart. coord. in units 2pi/alat
        k(    1) = (   0.0000000   0.0000000   0.0000000), wk =   0.0078125
        k(    2) = (   0.0000000   0.0721688   0.0000000), wk =   0.0468750
        k(    3) = (   0.0000000   0.1443376   0.0000000), wk =   0.0468750
        k(    4) = (   0.0000000   0.2165064   0.0000000), wk =   0.0468750
        k(    5) = (   0.0000000   0.2886751   0.0000000), wk =   0.0468750
        k(    6) = (   0.0000000   0.3608439   0.0000000), wk =   0.0468750
        k(    7) = (   0.0000000   0.4330127   0.0000000), wk =   0.0468750
        k(    8) = (   0.0000000   0.5051815   0.0000000), wk =   0.0468750
        k(    9) = (   0.0000000  -0.5773503   0.0000000), wk =   0.0234375
        k(   10) = (   0.0625000   0.1082532   0.0000000), wk =   0.0468750
        k(   11) = (   0.0625000   0.1804220   0.0000000), wk =   0.0937500
        k(   12) = (   0.0625000   0.2525907   0.0000000), wk =   0.0937500
        k(   13) = (   0.0625000   0.3247595   0.0000000), wk =   0.0937500
        k(   14) = (   0.0625000   0.3969283   0.0000000), wk =   0.0937500
        k(   15) = (   0.0625000   0.4690971   0.0000000), wk =   0.0937500
        k(   16) = (   0.0625000   0.5412659   0.0000000), wk =   0.0937500
        k(   17) = (   0.1250000   0.2165064   0.0000000), wk =   0.0468750
        k(   18) = (   0.1250000   0.2886751   0.0000000), wk =   0.0937500
        k(   19) = (   0.1250000   0.3608439   0.0000000), wk =   0.0937500
        k(   20) = (   0.1250000   0.4330127   0.0000000), wk =   0.0937500
        k(   21) = (   0.1250000   0.5051815   0.0000000), wk =   0.0937500
        k(   22) = (   0.1250000   0.5773503   0.0000000), wk =   0.0468750
        k(   23) = (   0.1875000   0.3247595   0.0000000), wk =   0.0468750
        k(   24) = (   0.1875000   0.3969283   0.0000000), wk =   0.0937500
        k(   25) = (   0.1875000   0.4690971   0.0000000), wk =   0.0937500
        k(   26) = (   0.1875000   0.5412659   0.0000000), wk =   0.0937500
        k(   27) = (   0.2500000   0.4330127   0.0000000), wk =   0.0468750
        k(   28) = (   0.2500000   0.5051815   0.0000000), wk =   0.0937500
        k(   29) = (   0.2500000   0.5773503   0.0000000), wk =   0.0468750
        k(   30) = (   0.3125000   0.5412659   0.0000000), wk =   0.0468750

                       cryst. coord.
        k(    1) = (   0.0000000   0.0000000   0.0000000), wk =   0.0078125
        k(    2) = (   0.0000000   0.0625000   0.0000000), wk =   0.0468750
        k(    3) = (   0.0000000   0.1250000   0.0000000), wk =   0.0468750
        k(    4) = (   0.0000000   0.1875000   0.0000000), wk =   0.0468750
        k(    5) = (   0.0000000   0.2500000   0.0000000), wk =   0.0468750
        k(    6) = (   0.0000000   0.3125000   0.0000000), wk =   0.0468750
        k(    7) = (   0.0000000   0.3750000   0.0000000), wk =   0.0468750
        k(    8) = (   0.0000000   0.4375000   0.0000000), wk =   0.0468750
        k(    9) = (   0.0000000  -0.5000000   0.0000000), wk =   0.0234375
        k(   10) = (   0.0625000   0.0625000   0.0000000), wk =   0.0468750
        k(   11) = (   0.0625000   0.1250000   0.0000000), wk =   0.0937500
        k(   12) = (   0.0625000   0.1875000   0.0000000), wk =   0.0937500
        k(   13) = (   0.0625000   0.2500000   0.0000000), wk =   0.0937500
        k(   14) = (   0.0625000   0.3125000   0.0000000), wk =   0.0937500
        k(   15) = (   0.0625000   0.3750000   0.0000000), wk =   0.0937500
        k(   16) = (   0.0625000   0.4375000   0.0000000), wk =   0.0937500
        k(   17) = (   0.1250000   0.1250000   0.0000000), wk =   0.0468750
        k(   18) = (   0.1250000   0.1875000   0.0000000), wk =   0.0937500
        k(   19) = (   0.1250000   0.2500000   0.0000000), wk =   0.0937500
        k(   20) = (   0.1250000   0.3125000   0.0000000), wk =   0.0937500
        k(   21) = (   0.1250000   0.3750000   0.0000000), wk =   0.0937500
        k(   22) = (   0.1250000   0.4375000   0.0000000), wk =   0.0468750
        k(   23) = (   0.1875000   0.1875000   0.0000000), wk =   0.0468750
        k(   24) = (   0.1875000   0.2500000   0.0000000), wk =   0.0937500
        k(   25) = (   0.1875000   0.3125000   0.0000000), wk =   0.0937500
        k(   26) = (   0.1875000   0.3750000   0.0000000), wk =   0.0937500
        k(   27) = (   0.2500000   0.2500000   0.0000000), wk =   0.0468750
        k(   28) = (   0.2500000   0.3125000   0.0000000), wk =   0.0937500
        k(   29) = (   0.2500000   0.3750000   0.0000000), wk =   0.0468750
        k(   30) = (   0.3125000   0.3125000   0.0000000), wk =   0.0468750

     Dense  grid:    38019 G-vectors     FFT dimensions: (  24,  24, 160)

     Dynamical RAM for                 wfc:       0.58 MB

     Dynamical RAM for     wfc (w. buffer):      17.93 MB

     Dynamical RAM for           str. fact:       0.58 MB

     Dynamical RAM for           local pot:       0.00 MB

     Dynamical RAM for          nlocal pot:       1.16 MB

     Dynamical RAM for                qrad:       0.36 MB

     Dynamical RAM for          rho,v,vnew:       3.85 MB

     Dynamical RAM for               rhoin:       1.28 MB

     Dynamical RAM for            rho*nmix:       9.28 MB

     Dynamical RAM for           G-vectors:       2.47 MB

     Dynamical RAM for          h,s,v(r/c):       0.01 MB

     Dynamical RAM for          <psi|beta>:       0.00 MB

     Dynamical RAM for                 psi:       1.16 MB

     Dynamical RAM for                hpsi:       1.16 MB

     Dynamical RAM for      wfcinit/wfcrot:       1.16 MB

     Estimated static dynamical RAM per process >      32.30 MB

     Estimated max dynamical RAM per process >      43.91 MB

     Initial potential from superposition of free atoms

     starting charge       7.9999, renormalised to       8.0000

     negative rho (up, down):  2.128E-05 0.000E+00
     Starting wfcs are    8 randomized atomic wfcs

     total cpu time spent up to now is        1.3 secs

     Self-consistent Calculation

     iteration #  1     ecut=    60.00 Ry     beta= 0.70
     Davidson diagonalization with overlap

---- Real-time Memory Report at c_bands before calling an iterative solver
             0 MiB given to the printing process from OS
             0 MiB allocation reported by mallinfo(arena+hblkhd)
             0 MiB available memory on the node where the printing process lives
------------------
     ethr =  1.00E-02,  avg # of iterations =  6.1

     negative rho (up, down):  2.571E-07 0.000E+00

     total cpu time spent up to now is        3.0 secs

     total energy              =     -24.06071458 Ry
     estimated scf accuracy    <       0.20019203 Ry

     iteration #  2     ecut=    60.00 Ry     beta= 0.70
     Davidson diagonalization with overlap

---- Real-time Memory Report at c_bands before calling an iterative solver
             0 MiB given to the printing process from OS
             0 MiB allocation reported by mallinfo(arena+hblkhd)
             0 MiB available memory on the node where the printing process lives
------------------
     ethr =  2.50E-03,  avg # of iterations =  4.0

     negative rho (up, down):  1.010E-08 0.000E+00

     total cpu time spent up to now is        4.3 secs

     total energy              =     -24.08888124 Ry
     estimated scf accuracy    <       0.00200484 Ry

     iteration #  3     ecut=    60.00 Ry     beta= 0.70
     Davidson diagonalization with overlap

---- Real-time Memory Report at c_bands before calling an iterative solver
             0 MiB given to the printing process from OS
             0 MiB allocation reported by mallinfo(arena+hblkhd)
             0 MiB available memory on the node where the printing process lives
------------------
     c_bands:  1 eigenvalues not converged
     ethr =  2.51E-05,  avg # of iterations = 12.3

     total cpu time spent up to now is        6.6 secs

     total energy              =     -24.08928869 Ry
     estimated scf accuracy    <       0.00015505 Ry

     iteration #  4     ecut=    60.00 Ry     beta= 0.70
     Davidson diagonalization with overlap

---- Real-time Memory Report at c_bands before calling an iterative solver
             0 MiB given to the printing process from OS
             0 MiB allocation reported by mallinfo(arena+hblkhd)
             0 MiB available memory on the node where the printing process lives
------------------
     ethr =  1.94E-06,  avg # of iterations =  5.0

     total cpu time spent up to now is        7.9 secs

     total energy              =     -24.08930205 Ry
     estimated scf accuracy    <       0.00000272 Ry

     iteration #  5     ecut=    60.00 Ry     beta= 0.70
     Davidson diagonalization with overlap

---- Real-time Memory Report at c_bands before calling an iterative solver
             0 MiB given to the printing process from OS
             0 MiB allocation reported by mallinfo(arena+hblkhd)
             0 MiB available memory on the node where the printing process lives
------------------
     ethr =  3.40E-08,  avg # of iterations =  3.1

     total cpu time spent up to now is        9.2 secs

     End of self-consistent calculation

          k = 0.0000 0.0000 0.0000 (  4723 PWs)   bands (ev):

   -21.6543  -9.7127  -5.0215  -5.0215   1.2367   2.0685   2.4658   3.8104

     occupation numbers 
     1.0000   1.0000   1.0000   1.0000   0.0000   0.0000   0.0000   0.0000

          k = 0.0000 0.0722 0.0000 (  4734 PWs)   bands (ev):

   -21.5612  -9.6008  -5.4007  -5.2228   1.3634   2.1966   2.5953   3.9388

     occupation numbers 
     1.0000   1.0000   1.0000   1.0000   0.0000   0.0000   0.0000   0.0000

          k = 0.0000 0.1443 0.0000 (  4760 PWs)   bands (ev):

   -21.2826  -9.2667  -6.4195  -5.7413   1.7435   2.5807   2.9838   4.3220

     occupation numbers 
     1.0000   1.0000   1.0000   1.0000   0.0000   0.0000   0.0000   0.0000

          k = 0.0000 0.2165 0.0000 (  4750 PWs)   bands (ev):

   -20.8200  -8.7147  -7.8406  -6.4071   2.3766   3.2189   3.6313   4.9584

     occupation numbers 
     1.0000   1.0000   1.0000   1.0000   0.0000   0.0000   0.0000   0.0000

          k = 0.0000 0.2887 0.0000 (  4740 PWs)   bands (ev):

   -20.1765  -9.4577  -7.9576  -7.0767   3.2614   4.0984   4.5374   5.3826

     occupation numbers 
     1.0000   1.0000   1.0000   1.0000   0.0000   0.0000   0.0000   0.0000

          k = 0.0000 0.3608 0.0000 (  4752 PWs)   bands (ev):

   -19.3575 -11.1313  -7.6603  -7.0173   3.5975   4.3937   5.2896   5.6952

     occupation numbers 
     1.0000   1.0000   1.0000   1.0000   0.0000   0.0000   0.0000   0.0000

          k = 0.0000 0.4330 0.0000 (  4748 PWs)   bands (ev):

   -18.3727 -12.7708  -8.1044  -5.9464   1.8770   5.6785   5.9238   6.6733

     occupation numbers 
     1.0000   1.0000   1.0000   1.0000   0.0000   0.0000   0.0000   0.0000

          k = 0.0000 0.5052 0.0000 (  4750 PWs)   bands (ev):

   -17.2500 -14.3025  -8.3803  -4.8987   0.4061   5.6711   7.4164   8.3033

     occupation numbers 
     1.0000   1.0000   1.0000   1.0000   0.0000   0.0000   0.0000   0.0000

          k = 0.0000-0.5774 0.0000 (  4752 PWs)   bands (ev):

   -16.3411 -15.3503  -8.4734  -4.3673  -0.2712   5.6266   9.1847   9.3299

     occupation numbers 
     1.0000   1.0000   1.0000   1.0000   0.0000   0.0000   0.0000   0.0000

          k = 0.0625 0.1083 0.0000 (  4749 PWs)   bands (ev):

   -21.3754  -9.3777  -6.0579  -5.6243   1.6168   2.4527   2.8543   4.1943

     occupation numbers 
     1.0000   1.0000   1.0000   1.0000   0.0000   0.0000   0.0000   0.0000

          k = 0.0625 0.1804 0.0000 (  4745 PWs)   bands (ev):

   -21.0047  -8.9343  -7.2018  -6.2929   2.1236   2.9642   3.3724   4.7049

     occupation numbers 
     1.0000   1.0000   1.0000   1.0000   0.0000   0.0000   0.0000   0.0000

          k = 0.0625 0.2526 0.0000 (  4746 PWs)   bands (ev):

   -20.4517  -8.6676  -8.2793  -7.0154   2.8831   3.7272   4.1494   5.4597

     occupation numbers 
     1.0000   1.0000   1.0000   1.0000   0.0000   0.0000   0.0000   0.0000

          k = 0.0625 0.3248 0.0000 (  4747 PWs)   bands (ev):

   -19.7204 -10.2834  -7.6719  -7.4279   3.8929   4.3589   4.8147   5.1848

     occupation numbers 
     1.0000   1.0000   1.0000   1.0000   0.0000   0.0000   0.0000   0.0000

          k = 0.0625 0.3969 0.0000 (  4738 PWs)   bands (ev):

   -18.8181 -11.9250  -8.2001  -6.4134   2.6770   5.1465   6.0341   6.3210

     occupation numbers 
     1.0000   1.0000   1.0000   1.0000   0.0000   0.0000   0.0000   0.0000

          k = 0.0625 0.4691 0.0000 (  4746 PWs)   bands (ev):

   -17.7602 -13.5070  -8.5676  -5.3216   1.0609   6.1280   6.6856   7.5406

     occupation numbers 
     1.0000   1.0000   1.0000   1.0000   0.0000   0.0000   0.0000   0.0000

          k = 0.0625 0.5413 0.0000 (  4759 PWs)   bands (ev):

   -16.6207 -14.9171  -8.7552  -4.4323  -0.1061   6.0528   8.3975   9.2609

     occupation numbers 
     1.0000   1.0000   1.0000   1.0000   0.0000   0.0000   0.0000   0.0000

          k = 0.1250 0.2165 0.0000 (  4741 PWs)   bands (ev):

   -20.5436  -8.3871  -8.2386  -7.1710   2.7571   3.6017   4.0201   5.3414

     occupation numbers 
     1.0000   1.0000   1.0000   1.0000   0.0000   0.0000   0.0000   0.0000

          k = 0.1250 0.2887 0.0000 (  4746 PWs)   bands (ev):

   -19.9029  -9.5512  -8.0328  -7.6355   3.6423   4.4823   4.9253   4.9267

     occupation numbers 
     1.0000   1.0000   1.0000   1.0000   0.0000   0.0000   0.0000   0.0000

          k = 0.1250 0.3608 0.0000 (  4735 PWs)   bands (ev):

   -19.0881 -11.0572  -8.7127  -6.7012   3.3133   4.7761   5.6348   6.0914

     occupation numbers 
     1.0000   1.0000   1.0000   1.0000   0.0000   0.0000   0.0000   0.0000

          k = 0.1250 0.4330 0.0000 (  4737 PWs)   bands (ev):

   -18.1099 -12.6093  -9.1986  -5.6334   1.7067   6.1507   7.0078   7.3547

     occupation numbers 
     1.0000   1.0000   1.0000   1.0000   0.0000   0.0000   0.0000   0.0000

          k = 0.1250 0.5052 0.0000 (  4736 PWs)   bands (ev):

   -16.9978 -14.0925  -9.4913  -4.5753   0.2967   7.2071   7.7901   8.5806

     occupation numbers 
     1.0000   1.0000   1.0000   1.0000   0.0000   0.0000   0.0000   0.0000

          k = 0.1250 0.5774 0.0000 (  4754 PWs)   bands (ev):

   -16.1031 -15.1150  -9.5893  -4.0253  -0.3763   7.1710   9.5112   9.6789

     occupation numbers 
     1.0000   1.0000   1.0000   1.0000   0.0000   0.0000   0.0000   0.0000

          k = 0.1875 0.3248 0.0000 (  4738 PWs)   bands (ev):

   -19.1785 -10.5425  -9.1301  -6.7980   3.5689   4.6514   5.4944   5.9628

     occupation numbers 
     1.0000   1.0000   1.0000   1.0000   0.0000   0.0000   0.0000   0.0000

          k = 0.1875 0.3969 0.0000 (  4721 PWs)   bands (ev):

   -18.2869 -11.7782  -9.9487  -5.7968   2.1310   5.9052   6.7270   7.2563

     occupation numbers 
     1.0000   1.0000   1.0000   1.0000   0.0000   0.0000   0.0000   0.0000

          k = 0.1875 0.4691 0.0000 (  4714 PWs)   bands (ev):

   -17.2458 -13.1684 -10.4320  -4.7034   0.7140   7.3919   8.1268   8.7873

     occupation numbers 
     1.0000   1.0000   1.0000   1.0000   0.0000   0.0000   0.0000   0.0000

          k = 0.1875 0.5413 0.0000 (  4732 PWs)   bands (ev):

   -16.1334 -14.4869 -10.6583  -3.7684  -0.3948   8.7475   9.1150   9.3401

     occupation numbers 
     1.0000   1.0000   1.0000   1.0000   0.0000   0.0000   0.0000   0.0000

          k = 0.2500 0.4330 0.0000 (  4734 PWs)   bands (ev):

   -17.3308 -12.5774 -11.0431  -4.7528   0.8934   7.2694   7.9598   8.6774

     occupation numbers 
     1.0000   1.0000   1.0000   1.0000   0.0000   0.0000   0.0000   0.0000

          k = 0.2500 0.5052 0.0000 (  4700 PWs)   bands (ev):

   -16.2540 -13.6391 -11.6580  -3.6652  -0.3079   8.8392   8.8653  10.3386

     occupation numbers 
     1.0000   1.0000   1.0000   1.0000   0.0000   0.0000   0.0000   0.0000

          k = 0.2500 0.5774 0.0000 (  4720 PWs)   bands (ev):

   -15.3901 -14.5348 -11.8327  -3.0075  -1.0057   9.0108  10.3509  10.4006

     occupation numbers 
     1.0000   1.0000   1.0000   1.0000   0.0000   0.0000   0.0000   0.0000

          k = 0.3125 0.5413 0.0000 (  4700 PWs)   bands (ev):

   -15.2134 -14.2089 -12.5042  -2.5993  -1.3453   8.7645  10.3677  11.2181

     occupation numbers 
     1.0000   1.0000   1.0000   1.0000   0.0000   0.0000   0.0000   0.0000

     the Fermi energy is    -2.0087 ev

!    total energy              =     -24.08930342 Ry
     estimated scf accuracy    <       0.00000004 Ry
     smearing contrib. (-TS)   =       0.00000000 Ry
     internal energy E=F+TS    =     -24.08930342 Ry

     The total energy is F=E-TS. E is the sum of the following terms:
     one-electron contribution =    -188.08491448 Ry
     hartree contribution      =      95.45698147 Ry
     xc contribution           =      -8.60071337 Ry
     ewald contribution        =      77.13934296 Ry

     convergence has been achieved in   5 iterations

     Forces acting on atoms (cartesian axes, Ry/au):

     atom    1 type  1   force =    -0.00000000   -0.00000000    0.00000000
     atom    2 type  1   force =     0.00000000    0.00000000    0.00000000
     The non-local contrib.  to forces
     atom    1 type  1   force =     0.00000000    0.00000000    0.00000000
     atom    2 type  1   force =    -0.00000000   -0.00000000    0.00000000
     The ionic contribution  to forces
     atom    1 type  1   force =    -0.00000001    0.00000000   -0.00000000
     atom    2 type  1   force =     0.00000001   -0.00000000   -0.00000000
     The local contribution  to forces
     atom    1 type  1   force =     0.00000000   -0.00000000   -0.00000000
     atom    2 type  1   force =     0.00000001   -0.00000000   -0.00000000
     The core correction contribution to forces
     atom    1 type  1   force =     0.00000000   -0.00000000   -0.00000000
     atom    2 type  1   force =    -0.00000000    0.00000000   -0.00000000
     The Hubbard contrib.    to forces
     atom    1 type  1   force =     0.00000000    0.00000000    0.00000000
     atom    2 type  1   force =     0.00000000    0.00000000    0.00000000
     The SCF correction term to forces
     atom    1 type  1   force =    -0.00000000    0.00000000    0.00000000
     atom    2 type  1   force =     0.00000000   -0.00000000    0.00000000

     Total force =     0.000000     Total SCF correction =     0.000000


     Computing stress (Cartesian axis) and pressure

          total   stress  (Ry/bohr**3)                   (kbar)     P=        0.11
   0.00003333  -0.00000000   0.00000000            4.90       -0.00        0.00
  -0.00000000   0.00003333   0.00000000           -0.00        4.90        0.00
   0.00000000   0.00000000  -0.00006447            0.00        0.00       -9.48

     kinetic stress (kbar)   2647.08     -0.00      0.00
                               -0.00   2647.08      0.00
                                0.00      0.00   2915.24

     local   stress (kbar) -48462.43      0.00     -0.00
                                0.00 -48462.43      0.00
                               -0.00      0.00  49274.16

     nonloc. stress (kbar)   -274.62      0.00      0.00
                                0.00   -274.62      0.00
                                0.00      0.00   -230.19

     hartree stress (kbar)  23062.62     -0.00      0.00
                               -0.00  23062.62     -0.00
                                0.00     -0.00 -22862.67

     exc-cor stress (kbar)   -210.44     -0.00      0.00
                               -0.00   -210.44      0.00
                                0.00      0.00   -235.53

     corecor stress (kbar)   -397.79      0.00      0.00
                                0.00   -397.79     -0.00
                                0.00      0.00   -388.12

     ewald   stress (kbar)  23640.49     -0.00     -0.00
                               -0.00  23640.49     -0.00
                               -0.00     -0.00 -28482.36

     hubbard stress (kbar)      0.00      0.00      0.00
                                0.00      0.00      0.00
                                0.00      0.00      0.00

     DFT-D   stress (kbar)      0.00      0.00      0.00
                                0.00      0.00      0.00
                                0.00      0.00      0.00

     XDM     stress (kbar)      0.00      0.00      0.00
                                0.00      0.00      0.00
                                0.00      0.00      0.00

     dft-nl  stress (kbar)      0.00      0.00      0.00
                                0.00      0.00      0.00
                                0.00      0.00      0.00

     TS-vdW  stress (kbar)      0.00      0.00      0.00
                                0.00      0.00      0.00
                                0.00      0.00      0.00


                                0.00      0.00      0.00
                                0.00      0.00      0.00


                                0.00      0.00      0.00


     Writing all to output data dir ./tmp/graphene_PBE.save/

     init_run     :      1.28s CPU      1.29s WALL (       1 calls)
     electrons    :      8.58s CPU      7.84s WALL (       1 calls)
     forces       :      0.14s CPU      0.14s WALL (       1 calls)
     stress       :      0.44s CPU      0.45s WALL (       1 calls)

     Called by init_run:
     wfcinit      :      0.70s CPU      0.69s WALL (       1 calls)
     wfcinit:atom :      0.01s CPU      0.01s WALL (      30 calls)
     wfcinit:wfcr :      0.63s CPU      0.62s WALL (      30 calls)
     potinit      :      0.04s CPU      0.04s WALL (       1 calls)
     hinit0       :      0.52s CPU      0.52s WALL (       1 calls)

     Called by electrons:
     c_bands      :      7.60s CPU      6.83s WALL (       5 calls)
     sum_band     :      0.84s CPU      0.85s WALL (       5 calls)
     v_of_rho     :      0.13s CPU      0.15s WALL (       6 calls)
     v_h          :      0.01s CPU      0.01s WALL (       6 calls)
     v_xc         :      0.17s CPU      0.19s WALL (       8 calls)
     mix_rho      :      0.02s CPU      0.03s WALL (       5 calls)

     Called by c_bands:
     init_us_2    :      0.19s CPU      0.19s WALL (     390 calls)
     init_us_2:cp :      0.19s CPU      0.19s WALL (     390 calls)
     cegterg      :      7.39s CPU      6.61s WALL (     150 calls)

     Called by sum_band:
     sum_band:wei :      0.00s CPU      0.00s WALL (       5 calls)
     sum_band:loo :      0.82s CPU      0.83s WALL (       5 calls)
     sum_band:buf :      0.01s CPU      0.01s WALL (     150 calls)
     sum_band:ini :      0.07s CPU      0.07s WALL (     150 calls)

     Called by *egterg:
     cdiaghg      :      0.08s CPU      0.08s WALL (    1064 calls)
     cegterg:over :      0.34s CPU      0.34s WALL (     914 calls)
     cegterg:upda :      0.53s CPU      0.27s WALL (     914 calls)
     cegterg:last :      0.52s CPU      0.19s WALL (     442 calls)
     h_psi        :      6.35s CPU      6.14s WALL (    1094 calls)
     g_psi        :      0.08s CPU      0.08s WALL (     914 calls)

     Called by h_psi:
     h_psi:calbec :      0.25s CPU      0.25s WALL (    1094 calls)
     vloc_psi     :      5.60s CPU      5.67s WALL (    1094 calls)
     add_vuspsi   :      0.47s CPU      0.18s WALL (    1094 calls)

     General routines
     calbec       :      0.30s CPU      0.31s WALL (    1244 calls)
     fft          :      0.51s CPU      0.52s WALL (      84 calls)
     ffts         :      0.00s CPU      0.00s WALL (       5 calls)
     fftw         :      5.57s CPU      5.63s WALL (   10028 calls)

     Parallel routines

     PWSCF        :     10.47s CPU      9.78s WALL


   This run was terminated on:   9:40:18  16Apr2025            

=------------------------------------------------------------------------------=
   JOB DONE.
=------------------------------------------------------------------------------=
