
     Program PWSCF v.7.2 starts on 15Apr2024 at  9:40: 8 

     This program is part of the open-source Quantum ESPRESSO suite
     for quantum simulation of materials; please cite
         "P. Giannozzi et al., J. Phys.:Condens. Matter 21 395502 (2009);
         "P. Giannozzi et al., J. Phys.:Condens. Matter 29 465901 (2017);
         "P. Giannozzi et al., J. Chem. Phys. 152 154105 (2020);
          URL http://www.quantum-espresso.org", 
     in publications or presentations arising from this work. More details at
     http://www.quantum-espresso.org/quote

     Parallel version (MPI & OpenMP), running on       8 processor cores
     Number of MPI processes:                 8
     Threads/MPI process:                     1

     MPI processes distributed on     1 nodes
     0 MiB available memory on the printing compute node when the environment starts

     Waiting for input...
     Reading input from standard input

     Current dimensions of program PWSCF are:
     Max number of different atomic species (ntypx) = 10
     Max number of k-points (npk) =  40000
     Max angular momentum in pseudopotentials (lmaxx) =  4
     Presently no symmetry can be used with electric field


     IMPORTANT: XC functional enforced from input :
     Exchange-correlation= VDW-DF2-B86R
                           (   1   4  26   0   2   0   0)
     Any further DFT definition will be discarded
     Please, verify this is what you really want


     R & G space division:  proc/nbgrp/npool/nimage =       8
     Subspace diagonalization in iterative solution of the eigenvalue problem:
     a serial algorithm will be used


     Parallelization info
     --------------------
     sticks:   dense  smooth     PW     G-vecs:    dense   smooth      PW
     Min          45      45     15                 5519     5519    1107
     Max          46      46     16                 5546     5546    1138
     Sum         361     361    121                44285    44285    8929

     Using Slab Decomposition



     bravais-lattice index     =            4
     lattice parameter (alat)  =       4.6645  a.u.
     unit-cell volume          =     703.1169 (a.u.)^3
     number of atoms/cell      =            4
     number of atomic types    =            1
     number of electrons       =        16.00
     number of Kohn-Sham states=           12
     kinetic-energy cutoff     =      60.0000  Ry
     charge density cutoff     =     240.0000  Ry
     scf convergence threshold =      1.0E-06
     mixing beta               =       0.7000
     number of iterations used =            8  plain     mixing
     Exchange-correlation= VDW-DF2-B86R
                           (   1   4  26   0   2   0   0)

     celldm(1)=   4.664470  celldm(2)=   0.000000  celldm(3)=   8.000000
     celldm(4)=   0.000000  celldm(5)=   0.000000  celldm(6)=   0.000000

     crystal axes: (cart. coord. in units of alat)
               a(1) = (   1.000000   0.000000   0.000000 )  
               a(2) = (  -0.500000   0.866025   0.000000 )  
               a(3) = (   0.000000   0.000000   8.000000 )  

     reciprocal axes: (cart. coord. in units 2 pi/alat)
               b(1) = (  1.000000  0.577350 -0.000000 )  
               b(2) = (  0.000000  1.154701  0.000000 )  
               b(3) = (  0.000000 -0.000000  0.125000 )  


     PseudoPot. # 1 for C  read from file:
     ../../../../../Pseudo/PBE/C.upf
     MD5 check sum: 34a24e64c0a39f27c6c36b90a16ac686
     Pseudo is Norm-conserving + core correction, Zval =  4.0
     Generated using ONCVPSP code by D. R. Hamann
     Using radial grid of 1248 points,  4 beta functions with: 
                l(1) =   0
                l(2) =   0
                l(3) =   1
                l(4) =   1

     atomic species   valence    mass     pseudopotential
        C              4.00    12.01100     C ( 1.00)

     No symmetry found


                                    s                        frac. trans.

      isym =  1     identity                                     

 cryst.   s( 1) = (     1          0          0      )
                  (     0          1          0      )
                  (     0          0          1      )

 cart.    s( 1) = (  1.0000000  0.0000000  0.0000000 )
                  (  0.0000000  1.0000000  0.0000000 )
                  (  0.0000000  0.0000000  1.0000000 )


     point group C_1 (1)    
     there are  1 classes
     the character table:

       E    
A      1.00

     the symmetry operations in each class and the name of the first element:

     E        1
          identity                                               

   Cartesian axes

     site n.     atom                  positions (alat units)
         1           C   tau(   1) = (   0.0000000   0.0000000   0.0000000  )
         2           C   tau(   2) = (   0.0000000   0.0000000   1.3401360  )
         3           C   tau(   3) = (   0.5000005   0.2886748   0.0000000  )
         4           C   tau(   4) = (  -0.0000005   0.5773506   1.3401360  )

   Crystallographic axes

     site n.     atom                  positions (cryst. coord.)
         1           C   tau(   1) = (  0.0000000  0.0000000  0.0000000  )
         2           C   tau(   2) = (  0.0000000  0.0000000  0.1675170  )
         3           C   tau(   3) = (  0.6666670  0.3333330  0.0000000  )
         4           C   tau(   4) = (  0.3333330  0.6666670  0.1675170  )

     number of k points=    74  Marzari-Vanderbilt smearing, width (Ry)=  0.0050
                       cart. coord. in units 2pi/alat
        k(    1) = (   0.0000000   0.0000000   0.0000000), wk =   0.0138889
        k(    2) = (   0.0000000   0.0962250   0.0000000), wk =   0.0277778
        k(    3) = (   0.0000000   0.1924501   0.0000000), wk =   0.0277778
        k(    4) = (   0.0000000   0.2886751   0.0000000), wk =   0.0277778
        k(    5) = (   0.0000000   0.3849002   0.0000000), wk =   0.0277778
        k(    6) = (   0.0000000   0.4811252   0.0000000), wk =   0.0277778
        k(    7) = (   0.0000000  -0.5773503   0.0000000), wk =   0.0138889
        k(    8) = (   0.0833333   0.0481125   0.0000000), wk =   0.0277778
        k(    9) = (   0.0833333   0.1443376   0.0000000), wk =   0.0277778
        k(   10) = (   0.0833333   0.2405626   0.0000000), wk =   0.0277778
        k(   11) = (   0.0833333   0.3367877   0.0000000), wk =   0.0277778
        k(   12) = (   0.0833333   0.4330127   0.0000000), wk =   0.0277778
        k(   13) = (   0.0833333   0.5292377   0.0000000), wk =   0.0277778
        k(   14) = (   0.0833333  -0.5292377   0.0000000), wk =   0.0277778
        k(   15) = (   0.0833333  -0.4330127   0.0000000), wk =   0.0277778
        k(   16) = (   0.0833333  -0.3367877   0.0000000), wk =   0.0277778
        k(   17) = (   0.0833333  -0.2405626   0.0000000), wk =   0.0277778
        k(   18) = (   0.0833333  -0.1443376   0.0000000), wk =   0.0277778
        k(   19) = (   0.0833333  -0.0481125   0.0000000), wk =   0.0277778
        k(   20) = (   0.1666667   0.0962250   0.0000000), wk =   0.0277778
        k(   21) = (   0.1666667   0.1924501   0.0000000), wk =   0.0277778
        k(   22) = (   0.1666667   0.2886751   0.0000000), wk =   0.0277778
        k(   23) = (   0.1666667   0.3849002   0.0000000), wk =   0.0277778
        k(   24) = (   0.1666667   0.4811252   0.0000000), wk =   0.0277778
        k(   25) = (   0.1666667   0.5773503   0.0000000), wk =   0.0277778
        k(   26) = (   0.1666667  -0.4811252   0.0000000), wk =   0.0277778
        k(   27) = (   0.1666667  -0.3849002   0.0000000), wk =   0.0277778
        k(   28) = (   0.1666667  -0.2886751   0.0000000), wk =   0.0277778
        k(   29) = (   0.1666667  -0.1924501   0.0000000), wk =   0.0277778
        k(   30) = (   0.1666667  -0.0962250   0.0000000), wk =   0.0277778
        k(   31) = (   0.1666667  -0.0000000   0.0000000), wk =   0.0277778
        k(   32) = (   0.2500000   0.1443376   0.0000000), wk =   0.0277778
        k(   33) = (   0.2500000   0.2405626   0.0000000), wk =   0.0277778
        k(   34) = (   0.2500000   0.3367877   0.0000000), wk =   0.0277778
        k(   35) = (   0.2500000   0.4330127   0.0000000), wk =   0.0277778
        k(   36) = (   0.2500000   0.5292377   0.0000000), wk =   0.0277778
        k(   37) = (   0.2500000   0.6254628   0.0000000), wk =   0.0277778
        k(   38) = (   0.2500000  -0.4330127   0.0000000), wk =   0.0277778
        k(   39) = (   0.2500000  -0.3367877   0.0000000), wk =   0.0277778
        k(   40) = (   0.2500000  -0.2405626   0.0000000), wk =   0.0277778
        k(   41) = (   0.2500000  -0.1443376   0.0000000), wk =   0.0277778
        k(   42) = (   0.2500000  -0.0481125   0.0000000), wk =   0.0277778
        k(   43) = (   0.2500000   0.0481125   0.0000000), wk =   0.0277778
        k(   44) = (   0.3333333   0.1924501   0.0000000), wk =   0.0277778
        k(   45) = (   0.3333333   0.2886751   0.0000000), wk =   0.0277778
        k(   46) = (   0.3333333   0.3849002   0.0000000), wk =   0.0277778
        k(   47) = (   0.3333333   0.4811252   0.0000000), wk =   0.0277778
        k(   48) = (   0.3333333   0.5773503   0.0000000), wk =   0.0277778
        k(   49) = (   0.3333333   0.6735753   0.0000000), wk =   0.0277778
        k(   50) = (   0.3333333  -0.3849002   0.0000000), wk =   0.0277778
        k(   51) = (   0.3333333  -0.2886751   0.0000000), wk =   0.0277778
        k(   52) = (   0.3333333  -0.1924501   0.0000000), wk =   0.0277778
        k(   53) = (   0.3333333  -0.0962250   0.0000000), wk =   0.0277778
        k(   54) = (   0.3333333   0.0000000   0.0000000), wk =   0.0277778
        k(   55) = (   0.3333333   0.0962250   0.0000000), wk =   0.0277778
        k(   56) = (   0.4166667   0.2405626   0.0000000), wk =   0.0277778
        k(   57) = (   0.4166667   0.3367877   0.0000000), wk =   0.0277778
        k(   58) = (   0.4166667   0.4330127   0.0000000), wk =   0.0277778
        k(   59) = (   0.4166667   0.5292377   0.0000000), wk =   0.0277778
        k(   60) = (   0.4166667   0.6254628   0.0000000), wk =   0.0277778
        k(   61) = (   0.4166667   0.7216878   0.0000000), wk =   0.0277778
        k(   62) = (   0.4166667  -0.3367877   0.0000000), wk =   0.0277778
        k(   63) = (   0.4166667  -0.2405626   0.0000000), wk =   0.0277778
        k(   64) = (   0.4166667  -0.1443376   0.0000000), wk =   0.0277778
        k(   65) = (   0.4166667  -0.0481125   0.0000000), wk =   0.0277778
        k(   66) = (   0.4166667   0.0481125   0.0000000), wk =   0.0277778
        k(   67) = (   0.4166667   0.1443376   0.0000000), wk =   0.0277778
        k(   68) = (  -0.5000000  -0.2886751   0.0000000), wk =   0.0138889
        k(   69) = (  -0.5000000  -0.1924501   0.0000000), wk =   0.0277778
        k(   70) = (  -0.5000000  -0.0962250   0.0000000), wk =   0.0277778
        k(   71) = (  -0.5000000   0.0000000   0.0000000), wk =   0.0277778
        k(   72) = (  -0.5000000   0.0962250   0.0000000), wk =   0.0277778
        k(   73) = (  -0.5000000   0.1924501   0.0000000), wk =   0.0277778
        k(   74) = (  -0.5000000  -0.8660254   0.0000000), wk =   0.0138889

                       cryst. coord.
        k(    1) = (   0.0000000   0.0000000   0.0000000), wk =   0.0138889
        k(    2) = (   0.0000000   0.0833333   0.0000000), wk =   0.0277778
        k(    3) = (   0.0000000   0.1666667   0.0000000), wk =   0.0277778
        k(    4) = (   0.0000000   0.2500000   0.0000000), wk =   0.0277778
        k(    5) = (   0.0000000   0.3333333   0.0000000), wk =   0.0277778
        k(    6) = (   0.0000000   0.4166667   0.0000000), wk =   0.0277778
        k(    7) = (   0.0000000  -0.5000000   0.0000000), wk =   0.0138889
        k(    8) = (   0.0833333   0.0000000   0.0000000), wk =   0.0277778
        k(    9) = (   0.0833333   0.0833333   0.0000000), wk =   0.0277778
        k(   10) = (   0.0833333   0.1666667   0.0000000), wk =   0.0277778
        k(   11) = (   0.0833333   0.2500000   0.0000000), wk =   0.0277778
        k(   12) = (   0.0833333   0.3333333   0.0000000), wk =   0.0277778
        k(   13) = (   0.0833333   0.4166667   0.0000000), wk =   0.0277778
        k(   14) = (   0.0833333  -0.5000000   0.0000000), wk =   0.0277778
        k(   15) = (   0.0833333  -0.4166667   0.0000000), wk =   0.0277778
        k(   16) = (   0.0833333  -0.3333333   0.0000000), wk =   0.0277778
        k(   17) = (   0.0833333  -0.2500000   0.0000000), wk =   0.0277778
        k(   18) = (   0.0833333  -0.1666667   0.0000000), wk =   0.0277778
        k(   19) = (   0.0833333  -0.0833333   0.0000000), wk =   0.0277778
        k(   20) = (   0.1666667   0.0000000   0.0000000), wk =   0.0277778
        k(   21) = (   0.1666667   0.0833333   0.0000000), wk =   0.0277778
        k(   22) = (   0.1666667   0.1666667   0.0000000), wk =   0.0277778
        k(   23) = (   0.1666667   0.2500000   0.0000000), wk =   0.0277778
        k(   24) = (   0.1666667   0.3333333   0.0000000), wk =   0.0277778
        k(   25) = (   0.1666667   0.4166667   0.0000000), wk =   0.0277778
        k(   26) = (   0.1666667  -0.5000000   0.0000000), wk =   0.0277778
        k(   27) = (   0.1666667  -0.4166667   0.0000000), wk =   0.0277778
        k(   28) = (   0.1666667  -0.3333333   0.0000000), wk =   0.0277778
        k(   29) = (   0.1666667  -0.2500000   0.0000000), wk =   0.0277778
        k(   30) = (   0.1666667  -0.1666667   0.0000000), wk =   0.0277778
        k(   31) = (   0.1666667  -0.0833333   0.0000000), wk =   0.0277778
        k(   32) = (   0.2500000   0.0000000   0.0000000), wk =   0.0277778
        k(   33) = (   0.2500000   0.0833333   0.0000000), wk =   0.0277778
        k(   34) = (   0.2500000   0.1666667   0.0000000), wk =   0.0277778
        k(   35) = (   0.2500000   0.2500000   0.0000000), wk =   0.0277778
        k(   36) = (   0.2500000   0.3333333   0.0000000), wk =   0.0277778
        k(   37) = (   0.2500000   0.4166667   0.0000000), wk =   0.0277778
        k(   38) = (   0.2500000  -0.5000000   0.0000000), wk =   0.0277778
        k(   39) = (   0.2500000  -0.4166667   0.0000000), wk =   0.0277778
        k(   40) = (   0.2500000  -0.3333333   0.0000000), wk =   0.0277778
        k(   41) = (   0.2500000  -0.2500000   0.0000000), wk =   0.0277778
        k(   42) = (   0.2500000  -0.1666667   0.0000000), wk =   0.0277778
        k(   43) = (   0.2500000  -0.0833333   0.0000000), wk =   0.0277778
        k(   44) = (   0.3333333   0.0000000   0.0000000), wk =   0.0277778
        k(   45) = (   0.3333333   0.0833333   0.0000000), wk =   0.0277778
        k(   46) = (   0.3333333   0.1666667   0.0000000), wk =   0.0277778
        k(   47) = (   0.3333333   0.2500000   0.0000000), wk =   0.0277778
        k(   48) = (   0.3333333   0.3333333   0.0000000), wk =   0.0277778
        k(   49) = (   0.3333333   0.4166667   0.0000000), wk =   0.0277778
        k(   50) = (   0.3333333  -0.5000000   0.0000000), wk =   0.0277778
        k(   51) = (   0.3333333  -0.4166667   0.0000000), wk =   0.0277778
        k(   52) = (   0.3333333  -0.3333333   0.0000000), wk =   0.0277778
        k(   53) = (   0.3333333  -0.2500000   0.0000000), wk =   0.0277778
        k(   54) = (   0.3333333  -0.1666667   0.0000000), wk =   0.0277778
        k(   55) = (   0.3333333  -0.0833333   0.0000000), wk =   0.0277778
        k(   56) = (   0.4166667   0.0000000   0.0000000), wk =   0.0277778
        k(   57) = (   0.4166667   0.0833333   0.0000000), wk =   0.0277778
        k(   58) = (   0.4166667   0.1666667   0.0000000), wk =   0.0277778
        k(   59) = (   0.4166667   0.2500000   0.0000000), wk =   0.0277778
        k(   60) = (   0.4166667   0.3333333   0.0000000), wk =   0.0277778
        k(   61) = (   0.4166667   0.4166667   0.0000000), wk =   0.0277778
        k(   62) = (   0.4166667  -0.5000000   0.0000000), wk =   0.0277778
        k(   63) = (   0.4166667  -0.4166667   0.0000000), wk =   0.0277778
        k(   64) = (   0.4166667  -0.3333333   0.0000000), wk =   0.0277778
        k(   65) = (   0.4166667  -0.2500000   0.0000000), wk =   0.0277778
        k(   66) = (   0.4166667  -0.1666667   0.0000000), wk =   0.0277778
        k(   67) = (   0.4166667  -0.0833333   0.0000000), wk =   0.0277778
        k(   68) = (  -0.5000000   0.0000000   0.0000000), wk =   0.0138889
        k(   69) = (  -0.5000000   0.0833333   0.0000000), wk =   0.0277778
        k(   70) = (  -0.5000000   0.1666667   0.0000000), wk =   0.0277778
        k(   71) = (  -0.5000000   0.2500000   0.0000000), wk =   0.0277778
        k(   72) = (  -0.5000000   0.3333333   0.0000000), wk =   0.0277778
        k(   73) = (  -0.5000000   0.4166667   0.0000000), wk =   0.0277778
        k(   74) = (  -0.5000000  -0.5000000   0.0000000), wk =   0.0138889

     Dense  grid:    44285 G-vectors     FFT dimensions: (  24,  24, 192)

     Dynamical RAM for                 wfc:       0.13 MB

     Dynamical RAM for     wfc (w. buffer):       9.46 MB

     Dynamical RAM for           str. fact:       0.08 MB

     Dynamical RAM for           local pot:       0.00 MB

     Dynamical RAM for          nlocal pot:       0.34 MB

     Dynamical RAM for                qrad:       0.36 MB

     Dynamical RAM for          rho,v,vnew:       0.57 MB

     Dynamical RAM for               rhoin:       0.19 MB

     Dynamical RAM for            rho*nmix:       1.35 MB

     Dynamical RAM for           G-vectors:       0.36 MB

     Dynamical RAM for          h,s,v(r/c):       0.03 MB

     Dynamical RAM for          <psi|beta>:       0.01 MB

     Dynamical RAM for                 psi:       0.25 MB

     Dynamical RAM for                hpsi:       0.25 MB

     Dynamical RAM for      wfcinit/wfcrot:       0.34 MB

     Estimated static dynamical RAM per process >      12.05 MB

     Estimated max dynamical RAM per process >      13.94 MB

     Estimated total dynamical RAM >     111.53 MB

     Adding external electric field
        E field amplitude [Ha a.u.]:  7.0000E-03
        Potential amp.        0.5172 Ry
        Total length         36.9426 bohr


     Initial potential from superposition of free atoms

     starting charge      15.9998, renormalised to      16.0000

     negative rho (up, down):  2.374E-05 0.000E+00


     %%%%%%%%%%%%%%%%%%%%%%%%%%%%%%%%%%%%%%%%%%%%%%%%%%%%%%%%%%%%%%%%%%%%%%%%
     %                                                                      %
     % You are using vdW-DF, which was implemented by the Thonhauser group. %
     % Please cite the following two papers that made this development      %
     % possible and the two reviews that describe the various versions:     %
     %                                                                      %
     %   T. Thonhauser et al., PRL 115, 136402 (2015).                      %
     %   T. Thonhauser et al., PRB 76, 125112 (2007).                       %
     %   K. Berland et al., Rep. Prog. Phys. 78, 066501 (2015).             %
     %   D.C. Langreth et al., J. Phys.: Condens. Matter 21, 084203 (2009). %
     %                                                                      %
     % If you are calculating stress with vdW-DF, please also cite:         %
     %                                                                      %
     %   R. Sabatini et al., J. Phys.: Condens. Matter 24, 424209 (2012).   %
     %                                                                      %
     %%%%%%%%%%%%%%%%%%%%%%%%%%%%%%%%%%%%%%%%%%%%%%%%%%%%%%%%%%%%%%%%%%%%%%%%

     %%%%%%%%%%%%%%%%%%%%%%%%%%%%%%%%%%%%%%%%%%%%%%%%%%%%%%%%%%%%%%%%%%%%%%%%
     %                                                                      %
     %  vdW-DF NEWS:                                                        %
     %                                                                      %
     %  * vdW-DF3 is now available. DOI: 10.1021/acs.jctc.0c00471           %
     %    use with input_dft = 'vdW-DF3-opt1' or 'vdW-DF3-opt2'             %
     %                                                                      %
     %  * Unscreened and range-separated hybrid vdW-DF-cx functionals       %
     %    DOI: 10.1063/1.4986522 and 10.1088/1361-648X/ac2ad2               %
     %    use with input_dft = 'vdW-DF-cx0'    and 'vdW-DF-ahcx'            %
     %  * Unscreened and range-separated hybrid vdW-DF2-b86r functionals    %
     %    DOI: 10.1063/1.4986522 and DOI: 10.1103/PhysRevX.12.041003        %
     %    use with input_dft = 'vdW-DF2-br0' and 'vdW-DF2-ahbr'             %
     %                                                                      %
     %%%%%%%%%%%%%%%%%%%%%%%%%%%%%%%%%%%%%%%%%%%%%%%%%%%%%%%%%%%%%%%%%%%%%%%%


     Carrying out vdW-DF run using the following parameters:
     Nqs    =  20  Npoints =  1024  r_max =  100.000
     q_mesh =  0.00001000  0.04494208  0.09755937  0.15916263
               0.23128650  0.31572767  0.41458969  0.53033537
               0.66584808  0.82450364  1.01025438  1.22772762
               1.48234092  1.78043706  2.12944203  2.53805004
               3.01644009  3.57652955  4.23227104  5.00000000


     -----------------------------------------------
     Non-local corr. energy    =       0.17027161 Ry
     -----------------------------------------------

     Starting wfcs are   16 randomized atomic wfcs

     total cpu time spent up to now is        9.9 secs

     Self-consistent Calculation

     iteration #  1     ecut=    60.00 Ry     beta= 0.70
     Davidson diagonalization with overlap

---- Real-time Memory Report at c_bands before calling an iterative solver
             0 MiB given to the printing process from OS
             0 MiB allocation reported by mallinfo(arena+hblkhd)
             0 MiB available memory on the node where the printing process lives
------------------
     ethr =  1.00E-02,  avg # of iterations =  3.2

     negative rho (up, down):  1.453E-07 0.000E+00


     -----------------------------------------------
     Non-local corr. energy    =       0.19360080 Ry
     -----------------------------------------------


     total cpu time spent up to now is       12.1 secs

     total energy              =     -48.19717778 Ry
     estimated scf accuracy    <       0.35020992 Ry

     iteration #  2     ecut=    60.00 Ry     beta= 0.70
     Davidson diagonalization with overlap

---- Real-time Memory Report at c_bands before calling an iterative solver
             0 MiB given to the printing process from OS
             0 MiB allocation reported by mallinfo(arena+hblkhd)
             0 MiB available memory on the node where the printing process lives
------------------
     ethr =  2.19E-03,  avg # of iterations =  4.4


     -----------------------------------------------
     Non-local corr. energy    =       0.19425865 Ry
     -----------------------------------------------


     total cpu time spent up to now is       14.1 secs

     total energy              =     -48.23266127 Ry
     estimated scf accuracy    <       0.02183181 Ry

     iteration #  3     ecut=    60.00 Ry     beta= 0.70
     Davidson diagonalization with overlap

---- Real-time Memory Report at c_bands before calling an iterative solver
             0 MiB given to the printing process from OS
             0 MiB allocation reported by mallinfo(arena+hblkhd)
             0 MiB available memory on the node where the printing process lives
------------------
     ethr =  1.36E-04,  avg # of iterations = 10.1


     -----------------------------------------------
     Non-local corr. energy    =       0.19407264 Ry
     -----------------------------------------------


     total cpu time spent up to now is       17.1 secs

     WARNING: integrated charge=    16.00000285, expected=    16.00000000

     total energy              =     -48.22992322 Ry
     estimated scf accuracy    <       0.06261750 Ry

     iteration #  4     ecut=    60.00 Ry     beta= 0.70
     Davidson diagonalization with overlap

---- Real-time Memory Report at c_bands before calling an iterative solver
             0 MiB given to the printing process from OS
             0 MiB allocation reported by mallinfo(arena+hblkhd)
             0 MiB available memory on the node where the printing process lives
------------------
     ethr =  1.36E-04,  avg # of iterations =  5.6


     -----------------------------------------------
     Non-local corr. energy    =       0.19390156 Ry
     -----------------------------------------------


     total cpu time spent up to now is       19.2 secs

     total energy              =     -48.24389509 Ry
     estimated scf accuracy    <       0.00056074 Ry

     iteration #  5     ecut=    60.00 Ry     beta= 0.70
     Davidson diagonalization with overlap

---- Real-time Memory Report at c_bands before calling an iterative solver
             0 MiB given to the printing process from OS
             0 MiB allocation reported by mallinfo(arena+hblkhd)
             0 MiB available memory on the node where the printing process lives
------------------
     c_bands:  1 eigenvalues not converged
     c_bands:  1 eigenvalues not converged
     c_bands:  1 eigenvalues not converged
     c_bands:  2 eigenvalues not converged
     c_bands:  1 eigenvalues not converged
     c_bands:  2 eigenvalues not converged
     c_bands:  1 eigenvalues not converged
     c_bands:  1 eigenvalues not converged
     c_bands:  1 eigenvalues not converged
     ethr =  3.50E-06,  avg # of iterations =  8.2


     -----------------------------------------------
     Non-local corr. energy    =       0.19398352 Ry
     -----------------------------------------------


     total cpu time spent up to now is       22.1 secs

     WARNING: integrated charge=    16.00027848, expected=    16.00000000

     total energy              =     -48.24406430 Ry
     estimated scf accuracy    <       0.00038772 Ry

     iteration #  6     ecut=    60.00 Ry     beta= 0.70
     Davidson diagonalization with overlap

---- Real-time Memory Report at c_bands before calling an iterative solver
             0 MiB given to the printing process from OS
             0 MiB allocation reported by mallinfo(arena+hblkhd)
             0 MiB available memory on the node where the printing process lives
------------------
     c_bands:  1 eigenvalues not converged
     c_bands:  1 eigenvalues not converged
     ethr =  2.42E-06,  avg # of iterations =  4.1


     -----------------------------------------------
     Non-local corr. energy    =       0.19402794 Ry
     -----------------------------------------------


     total cpu time spent up to now is       23.8 secs

     WARNING: integrated charge=    16.00013915, expected=    16.00000000

     total energy              =     -48.24409685 Ry
     estimated scf accuracy    <       0.00007585 Ry

     iteration #  7     ecut=    60.00 Ry     beta= 0.70
     Davidson diagonalization with overlap

---- Real-time Memory Report at c_bands before calling an iterative solver
             0 MiB given to the printing process from OS
             0 MiB allocation reported by mallinfo(arena+hblkhd)
             0 MiB available memory on the node where the printing process lives
------------------
     ethr =  4.74E-07,  avg # of iterations =  2.3


     -----------------------------------------------
     Non-local corr. energy    =       0.19406640 Ry
     -----------------------------------------------


     total cpu time spent up to now is       25.5 secs

     WARNING: integrated charge=    16.00001779, expected=    16.00000000

     total energy              =     -48.24409878 Ry
     estimated scf accuracy    <       0.00001007 Ry

     iteration #  8     ecut=    60.00 Ry     beta= 0.70
     Davidson diagonalization with overlap

---- Real-time Memory Report at c_bands before calling an iterative solver
             0 MiB given to the printing process from OS
             0 MiB allocation reported by mallinfo(arena+hblkhd)
             0 MiB available memory on the node where the printing process lives
------------------
     ethr =  6.29E-08,  avg # of iterations =  2.0


     -----------------------------------------------
     Non-local corr. energy    =       0.19407755 Ry
     -----------------------------------------------


     total cpu time spent up to now is       27.1 secs

     End of self-consistent calculation

          k = 0.0000 0.0000 0.0000 (  5505 PWs)   bands (ev):

   -19.2510 -19.0659  -7.8181  -6.7366  -2.7484  -2.7483  -2.6973  -2.6973
     1.7045   2.7412   3.7911   4.5650

     occupation numbers 
     1.0000   1.0000   1.0000   1.0000   1.0000   1.0000   1.0000   1.0000
     0.0000   0.0000   0.0000   0.0000

          k = 0.0000 0.0962 0.0000 (  5518 PWs)   bands (ev):

   -19.0866 -18.9032  -7.6185  -6.5439  -3.4005  -3.3462  -3.0875  -3.0346
     1.9331   2.9658   4.0153   4.7836

     occupation numbers 
     1.0000   1.0000   1.0000   1.0000   1.0000   1.0000   1.0000   1.0000
     0.0000   0.0000   0.0000   0.0000

          k = 0.0000 0.1925 0.0000 (  5532 PWs)   bands (ev):

   -18.5955 -18.4171  -7.0259  -5.9725  -5.0403  -4.9748  -3.8799  -3.8240
     2.6187   3.6389   4.6875   5.4379

     occupation numbers 
     1.0000   1.0000   1.0000   1.0000   1.0000   1.0000   1.0000   1.0000
     0.0000   0.0000   0.0000   0.0000

          k = 0.0000 0.2887 0.0000 (  5500 PWs)   bands (ev):

   -17.7831 -17.6128  -7.1413  -7.0608  -6.0559  -5.0428  -4.7595  -4.7012
     3.7613   4.7567   5.8060   6.5053

     occupation numbers 
     1.0000   1.0000   1.0000   1.0000   1.0000   1.0000   1.0000   1.0000
     0.0000   0.0000   0.0000   0.0000

          k = 0.0000 0.3849 0.0000 (  5544 PWs)   bands (ev):

   -16.6628 -16.5034  -9.3475  -9.2513  -5.4944  -5.4343  -4.7536  -3.8157
     4.9761   5.3610   5.5003   6.3409

     occupation numbers 
     1.0000   1.0000   1.0000   1.0000   1.0000   1.0000   1.0000   1.0000
     0.0000   0.0000   0.0000   0.0000

          k = 0.0000 0.4811 0.0000 (  5530 PWs)   bands (ev):

   -15.2644 -15.1202 -11.4490 -11.3379  -5.9681  -5.9073  -3.2534  -2.4871
     2.8318   3.4008   7.4177   7.7505

     occupation numbers 
     1.0000   1.0000   1.0000   1.0000   1.0000   1.0000   1.0000   1.0000
     0.0000   0.0000   0.0000   0.0000

          k = 0.0000-0.5774 0.0000 (  5540 PWs)   bands (ev):

   -13.9856 -13.8962 -12.9268 -12.8484  -6.1310  -6.0700  -2.2540  -1.8444
     1.8453   2.2418   7.6616   7.9001

     occupation numbers 
     1.0000   1.0000   1.0000   1.0000   1.0000   1.0000   1.0000   1.0000
     0.0000   0.0000   0.0000   0.0000

          k = 0.0833 0.0481 0.0000 (  5518 PWs)   bands (ev):

   -19.0866 -18.9032  -7.6185  -6.5439  -3.4005  -3.3462  -3.0875  -3.0346
     1.9330   2.9658   4.0152   4.7836

     occupation numbers 
     1.0000   1.0000   1.0000   1.0000   1.0000   1.0000   1.0000   1.0000
     0.0000   0.0000   0.0000   0.0000

          k = 0.0833 0.1443 0.0000 (  5513 PWs)   bands (ev):

   -18.7589 -18.5787  -7.2223  -6.1614  -4.4341  -4.3784  -3.7612  -3.7081
     2.3901   3.4147   4.4636   5.2205

     occupation numbers 
     1.0000   1.0000   1.0000   1.0000   1.0000   1.0000   1.0000   1.0000
     0.0000   0.0000   0.0000   0.0000

          k = 0.0833 0.2406 0.0000 (  5507 PWs)   bands (ev):

   -18.1071 -17.9336  -6.4405  -6.1461  -6.0789  -5.4095  -4.7592  -4.7010
     3.3043   4.3110   5.3596   6.0903

     occupation numbers 
     1.0000   1.0000   1.0000   1.0000   1.0000   1.0000   1.0000   1.0000
     0.0000   0.0000   0.0000   0.0000

          k = 0.0833 0.3368 0.0000 (  5525 PWs)   bands (ev):

   -17.1406 -16.9767  -8.2228  -8.1377  -5.6481  -5.5851  -5.2991  -4.3235
     4.6754   5.6322   6.0748   6.4633

     occupation numbers 
     1.0000   1.0000   1.0000   1.0000   1.0000   1.0000   1.0000   1.0000
     0.0000   0.0000   0.0000   0.0000

          k = 0.0833 0.4330 0.0000 (  5525 PWs)   bands (ev):

   -15.8783 -15.7270 -10.3486 -10.2462  -6.2843  -6.2190  -3.8702  -3.0011
     3.7937   4.3195   6.5037   7.4383

     occupation numbers 
     1.0000   1.0000   1.0000   1.0000   1.0000   1.0000   1.0000   1.0000
     0.0000   0.0000   0.0000   0.0000

          k = 0.0833 0.5292 0.0000 (  5533 PWs)   bands (ev):

   -14.3950 -14.2653 -12.2866 -12.1757  -6.6138  -6.5473  -2.4347  -1.8557
     2.0795   2.5358   8.3893   8.6372

     occupation numbers 
     1.0000   1.0000   1.0000   1.0000   1.0000   1.0000   1.0000   1.0000
     0.0000   0.0000   0.0000   0.0000

          k = 0.0833-0.5292 0.0000 (  5533 PWs)   bands (ev):

   -14.3950 -14.2653 -12.2866 -12.1757  -6.6138  -6.5473  -2.4347  -1.8557
     2.0795   2.5358   8.3893   8.6373

     occupation numbers 
     1.0000   1.0000   1.0000   1.0000   1.0000   1.0000   1.0000   1.0000
     0.0000   0.0000   0.0000   0.0000

          k = 0.0833-0.4330 0.0000 (  5525 PWs)   bands (ev):

   -15.8783 -15.7270 -10.3486 -10.2462  -6.2843  -6.2190  -3.8702  -3.0011
     3.7937   4.3195   6.5037   7.4383

     occupation numbers 
     1.0000   1.0000   1.0000   1.0000   1.0000   1.0000   1.0000   1.0000
     0.0000   0.0000   0.0000   0.0000

          k = 0.0833-0.3368 0.0000 (  5525 PWs)   bands (ev):

   -17.1406 -16.9767  -8.2228  -8.1377  -5.6481  -5.5851  -5.2991  -4.3234
     4.6754   5.6321   6.0748   6.4632

     occupation numbers 
     1.0000   1.0000   1.0000   1.0000   1.0000   1.0000   1.0000   1.0000
     0.0000   0.0000   0.0000   0.0000

          k = 0.0833-0.2406 0.0000 (  5507 PWs)   bands (ev):

   -18.1071 -17.9336  -6.4405  -6.1461  -6.0789  -5.4095  -4.7592  -4.7010
     3.3043   4.3110   5.3596   6.0903

     occupation numbers 
     1.0000   1.0000   1.0000   1.0000   1.0000   1.0000   1.0000   1.0000
     0.0000   0.0000   0.0000   0.0000

          k = 0.0833-0.1443 0.0000 (  5513 PWs)   bands (ev):

   -18.7589 -18.5787  -7.2223  -6.1614  -4.4341  -4.3784  -3.7612  -3.7081
     2.3901   3.4147   4.4636   5.2205

     occupation numbers 
     1.0000   1.0000   1.0000   1.0000   1.0000   1.0000   1.0000   1.0000
     0.0000   0.0000   0.0000   0.0000

          k = 0.0833-0.0481 0.0000 (  5518 PWs)   bands (ev):

   -19.0866 -18.9032  -7.6185  -6.5439  -3.4006  -3.3462  -3.0874  -3.0346
     1.9331   2.9658   4.0152   4.7836

     occupation numbers 
     1.0000   1.0000   1.0000   1.0000   1.0000   1.0000   1.0000   1.0000
     0.0000   0.0000   0.0000   0.0000

          k = 0.1667 0.0962 0.0000 (  5532 PWs)   bands (ev):

   -18.5955 -18.4171  -7.0259  -5.9725  -5.0403  -4.9748  -3.8799  -3.8240
     2.6187   3.6389   4.6875   5.4380

     occupation numbers 
     1.0000   1.0000   1.0000   1.0000   1.0000   1.0000   1.0000   1.0000
     0.0000   0.0000   0.0000   0.0000

          k = 0.1667 0.1925 0.0000 (  5507 PWs)   bands (ev):

   -18.1071 -17.9336  -6.4405  -6.1461  -6.0789  -5.4095  -4.7592  -4.7010
     3.3043   4.3110   5.3596   6.0903

     occupation numbers 
     1.0000   1.0000   1.0000   1.0000   1.0000   1.0000   1.0000   1.0000
     0.0000   0.0000   0.0000   0.0000

          k = 0.1667 0.2887 0.0000 (  5510 PWs)   bands (ev):

   -17.3012 -17.1357  -7.4755  -7.4119  -6.1141  -6.0550  -5.4834  -4.4956
     4.4469   5.4281   6.4771   6.5651

     occupation numbers 
     1.0000   1.0000   1.0000   1.0000   1.0000   1.0000   1.0000   1.0000
     0.0000   0.0000   0.0000   0.0000

          k = 0.1667 0.3849 0.0000 (  5515 PWs)   bands (ev):

   -16.1913 -16.0369  -9.2076  -9.1246  -7.1743  -7.1050  -4.1951  -3.2827
     4.5762   4.9437   6.0465   6.9847

     occupation numbers 
     1.0000   1.0000   1.0000   1.0000   1.0000   1.0000   1.0000   1.0000
     0.0000   0.0000   0.0000   0.0000

          k = 0.1667 0.4811 0.0000 (  5530 PWs)   bands (ev):

   -14.8134 -14.6734 -11.1212 -11.0177  -7.7551  -7.6787  -2.6969  -1.9429
     2.6385   3.0739   8.1028   8.9553

     occupation numbers 
     1.0000   1.0000   1.0000   1.0000   1.0000   1.0000   1.0000   1.0000
     0.0000   0.0000   0.0000   0.0000

          k = 0.1667 0.5774 0.0000 (  5518 PWs)   bands (ev):

   -13.5639 -13.4770 -12.5289 -12.4547  -7.9413  -7.8629  -1.6546  -1.2515
     1.7103   1.9199  10.1299  10.4493

     occupation numbers 
     1.0000   1.0000   1.0000   1.0000   1.0000   1.0000   1.0000   1.0000
     0.0000   0.0000   0.0000   0.0000

          k = 0.1667-0.4811 0.0000 (  5530 PWs)   bands (ev):

   -14.8134 -14.6734 -11.1212 -11.0177  -7.7551  -7.6787  -2.6969  -1.9429
     2.6385   3.0739   8.1027   8.9551

     occupation numbers 
     1.0000   1.0000   1.0000   1.0000   1.0000   1.0000   1.0000   1.0000
     0.0000   0.0000   0.0000   0.0000

          k = 0.1667-0.3849 0.0000 (  5515 PWs)   bands (ev):

   -16.1913 -16.0369  -9.2076  -9.1246  -7.1743  -7.1050  -4.1951  -3.2826
     4.5763   4.9437   6.0465   6.9845

     occupation numbers 
     1.0000   1.0000   1.0000   1.0000   1.0000   1.0000   1.0000   1.0000
     0.0000   0.0000   0.0000   0.0000

          k = 0.1667-0.2887 0.0000 (  5510 PWs)   bands (ev):

   -17.3012 -17.1357  -7.4755  -7.4119  -6.1141  -6.0549  -5.4834  -4.4956
     4.4469   5.4282   6.4772   6.5651

     occupation numbers 
     1.0000   1.0000   1.0000   1.0000   1.0000   1.0000   1.0000   1.0000
     0.0000   0.0000   0.0000   0.0000

          k = 0.1667-0.1925 0.0000 (  5507 PWs)   bands (ev):

   -18.1071 -17.9336  -6.4405  -6.1462  -6.0789  -5.4095  -4.7592  -4.7009
     3.3043   4.3110   5.3596   6.0903

     occupation numbers 
     1.0000   1.0000   1.0000   1.0000   1.0000   1.0000   1.0000   1.0000
     0.0000   0.0000   0.0000   0.0000

          k = 0.1667-0.0962 0.0000 (  5532 PWs)   bands (ev):

   -18.5955 -18.4171  -7.0259  -5.9725  -5.0404  -4.9748  -3.8799  -3.8239
     2.6187   3.6389   4.6875   5.4379

     occupation numbers 
     1.0000   1.0000   1.0000   1.0000   1.0000   1.0000   1.0000   1.0000
     0.0000   0.0000   0.0000   0.0000

          k = 0.1667-0.0000 0.0000 (  5513 PWs)   bands (ev):

   -18.7589 -18.5787  -7.2223  -6.1614  -4.4341  -4.3784  -3.7612  -3.7081
     2.3901   3.4147   4.4636   5.2205

     occupation numbers 
     1.0000   1.0000   1.0000   1.0000   1.0000   1.0000   1.0000   1.0000
     0.0000   0.0000   0.0000   0.0000

          k = 0.2500 0.1443 0.0000 (  5500 PWs)   bands (ev):

   -17.7831 -17.6128  -7.1413  -7.0608  -6.0559  -5.0428  -4.7595  -4.7012
     3.7613   4.7566   5.8060   6.5054

     occupation numbers 
     1.0000   1.0000   1.0000   1.0000   1.0000   1.0000   1.0000   1.0000
     0.0000   0.0000   0.0000   0.0000

          k = 0.2500 0.2406 0.0000 (  5525 PWs)   bands (ev):

   -17.1406 -16.9767  -8.2228  -8.1377  -5.6481  -5.5851  -5.2991  -4.3235
     4.6753   5.6321   6.0748   6.4633

     occupation numbers 
     1.0000   1.0000   1.0000   1.0000   1.0000   1.0000   1.0000   1.0000
     0.0000   0.0000   0.0000   0.0000

          k = 0.2500 0.3368 0.0000 (  5515 PWs)   bands (ev):

   -16.1913 -16.0369  -9.2076  -9.1246  -7.1743  -7.1050  -4.1951  -3.2827
     4.5762   4.9437   6.0465   6.9846

     occupation numbers 
     1.0000   1.0000   1.0000   1.0000   1.0000   1.0000   1.0000   1.0000
     0.0000   0.0000   0.0000   0.0000

          k = 0.2500 0.4330 0.0000 (  5486 PWs)   bands (ev):

   -14.9612 -14.8191 -10.2400 -10.1674  -8.6456  -8.5796  -2.8040  -1.9958
     2.9719   3.3237   7.8741   8.7205

     occupation numbers 
     1.0000   1.0000   1.0000   1.0000   1.0000   1.0000   1.0000   1.0000
     0.0000   0.0000   0.0000   0.0000

          k = 0.2500 0.5292 0.0000 (  5487 PWs)   bands (ev):

   -13.5351 -13.4143 -11.6628 -11.5713  -9.3601  -9.2800  -1.3209  -0.7383
     1.4819   1.8039  10.1543  10.5911

     occupation numbers 
     1.0000   1.0000   1.0000   1.0000   1.0000   1.0000   1.0000   1.0000
     0.0000   0.0000   0.0000   0.0000

          k = 0.2500 0.6255 0.0000 (  5487 PWs)   bands (ev):

   -13.5351 -13.4143 -11.6629 -11.5713  -9.3601  -9.2800  -1.3209  -0.7383
     1.4819   1.8039  10.1542  10.5905

     occupation numbers 
     1.0000   1.0000   1.0000   1.0000   1.0000   1.0000   1.0000   1.0000
     0.0000   0.0000   0.0000   0.0000

          k = 0.2500-0.4330 0.0000 (  5486 PWs)   bands (ev):

   -14.9612 -14.8191 -10.2400 -10.1674  -8.6456  -8.5796  -2.8040  -1.9958
     2.9719   3.3237   7.8741   8.7204

     occupation numbers 
     1.0000   1.0000   1.0000   1.0000   1.0000   1.0000   1.0000   1.0000
     0.0000   0.0000   0.0000   0.0000

          k = 0.2500-0.3368 0.0000 (  5515 PWs)   bands (ev):

   -16.1913 -16.0369  -9.2076  -9.1246  -7.1743  -7.1050  -4.1951  -3.2826
     4.5762   4.9437   6.0465   6.9846

     occupation numbers 
     1.0000   1.0000   1.0000   1.0000   1.0000   1.0000   1.0000   1.0000
     0.0000   0.0000   0.0000   0.0000

          k = 0.2500-0.2406 0.0000 (  5525 PWs)   bands (ev):

   -17.1406 -16.9767  -8.2228  -8.1377  -5.6481  -5.5851  -5.2991  -4.3234
     4.6754   5.6321   6.0748   6.4633

     occupation numbers 
     1.0000   1.0000   1.0000   1.0000   1.0000   1.0000   1.0000   1.0000
     0.0000   0.0000   0.0000   0.0000

          k = 0.2500-0.1443 0.0000 (  5500 PWs)   bands (ev):

   -17.7831 -17.6128  -7.1413  -7.0608  -6.0559  -5.0428  -4.7594  -4.7011
     3.7613   4.7567   5.8060   6.5053

     occupation numbers 
     1.0000   1.0000   1.0000   1.0000   1.0000   1.0000   1.0000   1.0000
     0.0000   0.0000   0.0000   0.0000

          k = 0.2500-0.0481 0.0000 (  5507 PWs)   bands (ev):

   -18.1071 -17.9336  -6.4405  -6.1462  -6.0789  -5.4095  -4.7592  -4.7009
     3.3043   4.3111   5.3596   6.0903

     occupation numbers 
     1.0000   1.0000   1.0000   1.0000   1.0000   1.0000   1.0000   1.0000
     0.0000   0.0000   0.0000   0.0000

          k = 0.2500 0.0481 0.0000 (  5507 PWs)   bands (ev):

   -18.1071 -17.9336  -6.4405  -6.1461  -6.0789  -5.4095  -4.7592  -4.7010
     3.3043   4.3110   5.3597   6.0903

     occupation numbers 
     1.0000   1.0000   1.0000   1.0000   1.0000   1.0000   1.0000   1.0000
     0.0000   0.0000   0.0000   0.0000

          k = 0.3333 0.1925 0.0000 (  5544 PWs)   bands (ev):

   -16.6628 -16.5034  -9.3475  -9.2513  -5.4944  -5.4343  -4.7536  -3.8157
     4.9761   5.3610   5.5003   6.3409

     occupation numbers 
     1.0000   1.0000   1.0000   1.0000   1.0000   1.0000   1.0000   1.0000
     0.0000   0.0000   0.0000   0.0000

          k = 0.3333 0.2887 0.0000 (  5525 PWs)   bands (ev):

   -15.8783 -15.7270 -10.3486 -10.2462  -6.2843  -6.2190  -3.8702  -3.0011
     3.7937   4.3195   6.5037   7.4385

     occupation numbers 
     1.0000   1.0000   1.0000   1.0000   1.0000   1.0000   1.0000   1.0000
     0.0000   0.0000   0.0000   0.0000

          k = 0.3333 0.3849 0.0000 (  5530 PWs)   bands (ev):

   -14.8134 -14.6734 -11.1212 -11.0177  -7.7551  -7.6787  -2.6969  -1.9429
     2.6385   3.0739   8.1027   8.9551

     occupation numbers 
     1.0000   1.0000   1.0000   1.0000   1.0000   1.0000   1.0000   1.0000
     0.0000   0.0000   0.0000   0.0000

          k = 0.3333 0.4811 0.0000 (  5487 PWs)   bands (ev):

   -13.5351 -13.4143 -11.6628 -11.5713  -9.3601  -9.2800  -1.3209  -0.7383
     1.4819   1.8039  10.1543  10.5905

     occupation numbers 
     1.0000   1.0000   1.0000   1.0000   1.0000   1.0000   1.0000   1.0000
     0.0000   0.0000   0.0000   0.0000

          k = 0.3333 0.5774 0.0000 (  5484 PWs)   bands (ev):

   -12.3291 -12.2905 -12.2347 -12.2021 -10.2339 -10.1745  -0.0400   0.2858
     0.3715   0.7231  10.6450  10.8790

     occupation numbers 
     1.0000   1.0000   1.0000   1.0000   1.0000   1.0000   1.0000   0.8873
     0.1127   0.0000   0.0000   0.0000

          k = 0.3333 0.6736 0.0000 (  5487 PWs)   bands (ev):

   -13.5351 -13.4143 -11.6629 -11.5713  -9.3601  -9.2800  -1.3209  -0.7383
     1.4819   1.8038  10.1542  10.5908

     occupation numbers 
     1.0000   1.0000   1.0000   1.0000   1.0000   1.0000   1.0000   1.0000
     0.0000   0.0000   0.0000   0.0000

          k = 0.3333-0.3849 0.0000 (  5530 PWs)   bands (ev):

   -14.8134 -14.6734 -11.1212 -11.0177  -7.7551  -7.6786  -2.6969  -1.9429
     2.6385   3.0739   8.1028   8.9552

     occupation numbers 
     1.0000   1.0000   1.0000   1.0000   1.0000   1.0000   1.0000   1.0000
     0.0000   0.0000   0.0000   0.0000

          k = 0.3333-0.2887 0.0000 (  5525 PWs)   bands (ev):

   -15.8783 -15.7270 -10.3487 -10.2462  -6.2843  -6.2190  -3.8702  -3.0011
     3.7936   4.3194   6.5038   7.4385

     occupation numbers 
     1.0000   1.0000   1.0000   1.0000   1.0000   1.0000   1.0000   1.0000
     0.0000   0.0000   0.0000   0.0000

          k = 0.3333-0.1925 0.0000 (  5544 PWs)   bands (ev):

   -16.6628 -16.5034  -9.3475  -9.2514  -5.4944  -5.4343  -4.7536  -3.8157
     4.9761   5.3610   5.5003   6.3410

     occupation numbers 
     1.0000   1.0000   1.0000   1.0000   1.0000   1.0000   1.0000   1.0000
     0.0000   0.0000   0.0000   0.0000

          k = 0.3333-0.0962 0.0000 (  5525 PWs)   bands (ev):

   -17.1406 -16.9767  -8.2228  -8.1377  -5.6481  -5.5851  -5.2991  -4.3234
     4.6753   5.6322   6.0748   6.4633

     occupation numbers 
     1.0000   1.0000   1.0000   1.0000   1.0000   1.0000   1.0000   1.0000
     0.0000   0.0000   0.0000   0.0000

          k = 0.3333 0.0000 0.0000 (  5510 PWs)   bands (ev):

   -17.3012 -17.1357  -7.4755  -7.4119  -6.1141  -6.0549  -5.4834  -4.4956
     4.4469   5.4282   6.4772   6.5653

     occupation numbers 
     1.0000   1.0000   1.0000   1.0000   1.0000   1.0000   1.0000   1.0000
     0.0000   0.0000   0.0000   0.0000

          k = 0.3333 0.0962 0.0000 (  5525 PWs)   bands (ev):

   -17.1406 -16.9767  -8.2228  -8.1377  -5.6481  -5.5851  -5.2991  -4.3235
     4.6753   5.6321   6.0748   6.4631

     occupation numbers 
     1.0000   1.0000   1.0000   1.0000   1.0000   1.0000   1.0000   1.0000
     0.0000   0.0000   0.0000   0.0000

          k = 0.4167 0.2406 0.0000 (  5530 PWs)   bands (ev):

   -15.2644 -15.1202 -11.4490 -11.3379  -5.9681  -5.9073  -3.2534  -2.4871
     2.8318   3.4008   7.4177   7.7475

     occupation numbers 
     1.0000   1.0000   1.0000   1.0000   1.0000   1.0000   1.0000   1.0000
     0.0000   0.0000   0.0000   0.0000

          k = 0.4167 0.3368 0.0000 (  5533 PWs)   bands (ev):

   -14.3950 -14.2653 -12.2866 -12.1757  -6.6138  -6.5473  -2.4347  -1.8557
     2.0795   2.5358   8.3893   8.6372

     occupation numbers 
     1.0000   1.0000   1.0000   1.0000   1.0000   1.0000   1.0000   1.0000
     0.0000   0.0000   0.0000   0.0000

          k = 0.4167 0.4330 0.0000 (  5518 PWs)   bands (ev):

   -13.5639 -13.4770 -12.5289 -12.4547  -7.9413  -7.8629  -1.6546  -1.2515
     1.7103   1.9199  10.1299  10.4496

     occupation numbers 
     1.0000   1.0000   1.0000   1.0000   1.0000   1.0000   1.0000   1.0000
     0.0000   0.0000   0.0000   0.0000

          k = 0.4167 0.5292 0.0000 (  5487 PWs)   bands (ev):

   -13.5351 -13.4143 -11.6628 -11.5713  -9.3601  -9.2800  -1.3209  -0.7383
     1.4819   1.8039  10.1542  10.5909

     occupation numbers 
     1.0000   1.0000   1.0000   1.0000   1.0000   1.0000   1.0000   1.0000
     0.0000   0.0000   0.0000   0.0000

          k = 0.4167 0.6255 0.0000 (  5487 PWs)   bands (ev):

   -13.5351 -13.4143 -11.6629 -11.5713  -9.3601  -9.2800  -1.3209  -0.7383
     1.4819   1.8038  10.1542  10.5905

     occupation numbers 
     1.0000   1.0000   1.0000   1.0000   1.0000   1.0000   1.0000   1.0000
     0.0000   0.0000   0.0000   0.0000

          k = 0.4167 0.7217 0.0000 (  5518 PWs)   bands (ev):

   -13.5639 -13.4770 -12.5289 -12.4548  -7.9413  -7.8629  -1.6546  -1.2515
     1.7103   1.9198  10.1299  10.4492

     occupation numbers 
     1.0000   1.0000   1.0000   1.0000   1.0000   1.0000   1.0000   1.0000
     0.0000   0.0000   0.0000   0.0000

          k = 0.4167-0.3368 0.0000 (  5533 PWs)   bands (ev):

   -14.3950 -14.2653 -12.2866 -12.1757  -6.6138  -6.5473  -2.4347  -1.8557
     2.0795   2.5358   8.3893   8.6372

     occupation numbers 
     1.0000   1.0000   1.0000   1.0000   1.0000   1.0000   1.0000   1.0000
     0.0000   0.0000   0.0000   0.0000

          k = 0.4167-0.2406 0.0000 (  5530 PWs)   bands (ev):

   -15.2644 -15.1202 -11.4491 -11.3379  -5.9681  -5.9073  -3.2534  -2.4871
     2.8318   3.4008   7.4178   7.7475

     occupation numbers 
     1.0000   1.0000   1.0000   1.0000   1.0000   1.0000   1.0000   1.0000
     0.0000   0.0000   0.0000   0.0000

          k = 0.4167-0.1443 0.0000 (  5525 PWs)   bands (ev):

   -15.8783 -15.7270 -10.3487 -10.2462  -6.2843  -6.2190  -3.8702  -3.0011
     3.7936   4.3194   6.5037   7.4385

     occupation numbers 
     1.0000   1.0000   1.0000   1.0000   1.0000   1.0000   1.0000   1.0000
     0.0000   0.0000   0.0000   0.0000

          k = 0.4167-0.0481 0.0000 (  5515 PWs)   bands (ev):

   -16.1913 -16.0369  -9.2076  -9.1246  -7.1743  -7.1050  -4.1951  -3.2826
     4.5762   4.9437   6.0465   6.9845

     occupation numbers 
     1.0000   1.0000   1.0000   1.0000   1.0000   1.0000   1.0000   1.0000
     0.0000   0.0000   0.0000   0.0000

          k = 0.4167 0.0481 0.0000 (  5515 PWs)   bands (ev):

   -16.1913 -16.0369  -9.2076  -9.1246  -7.1743  -7.1050  -4.1951  -3.2826
     4.5763   4.9437   6.0465   6.9845

     occupation numbers 
     1.0000   1.0000   1.0000   1.0000   1.0000   1.0000   1.0000   1.0000
     0.0000   0.0000   0.0000   0.0000

          k = 0.4167 0.1443 0.0000 (  5525 PWs)   bands (ev):

   -15.8783 -15.7270 -10.3486 -10.2462  -6.2843  -6.2190  -3.8702  -3.0011
     3.7937   4.3195   6.5037   7.4383

     occupation numbers 
     1.0000   1.0000   1.0000   1.0000   1.0000   1.0000   1.0000   1.0000
     0.0000   0.0000   0.0000   0.0000

          k =-0.5000-0.2887 0.0000 (  5540 PWs)   bands (ev):

   -13.9856 -13.8962 -12.9268 -12.8484  -6.1310  -6.0700  -2.2540  -1.8444
     1.8453   2.2418   7.6616   7.9001

     occupation numbers 
     1.0000   1.0000   1.0000   1.0000   1.0000   1.0000   1.0000   1.0000
     0.0000   0.0000   0.0000   0.0000

          k =-0.5000-0.1925 0.0000 (  5533 PWs)   bands (ev):

   -14.3950 -14.2653 -12.2866 -12.1757  -6.6138  -6.5473  -2.4347  -1.8557
     2.0795   2.5358   8.3893   8.6373

     occupation numbers 
     1.0000   1.0000   1.0000   1.0000   1.0000   1.0000   1.0000   1.0000
     0.0000   0.0000   0.0000   0.0000

          k =-0.5000-0.0962 0.0000 (  5530 PWs)   bands (ev):

   -14.8134 -14.6734 -11.1212 -11.0177  -7.7551  -7.6786  -2.6969  -1.9429
     2.6385   3.0739   8.1028   8.9552

     occupation numbers 
     1.0000   1.0000   1.0000   1.0000   1.0000   1.0000   1.0000   1.0000
     0.0000   0.0000   0.0000   0.0000

          k =-0.5000 0.0000 0.0000 (  5486 PWs)   bands (ev):

   -14.9612 -14.8191 -10.2400 -10.1674  -8.6456  -8.5796  -2.8040  -1.9958
     2.9719   3.3237   7.8741   8.7205

     occupation numbers 
     1.0000   1.0000   1.0000   1.0000   1.0000   1.0000   1.0000   1.0000
     0.0000   0.0000   0.0000   0.0000

          k =-0.5000 0.0962 0.0000 (  5530 PWs)   bands (ev):

   -14.8134 -14.6734 -11.1212 -11.0177  -7.7551  -7.6786  -2.6969  -1.9429
     2.6385   3.0739   8.1027   8.9551

     occupation numbers 
     1.0000   1.0000   1.0000   1.0000   1.0000   1.0000   1.0000   1.0000
     0.0000   0.0000   0.0000   0.0000

          k =-0.5000 0.1925 0.0000 (  5533 PWs)   bands (ev):

   -14.3950 -14.2653 -12.2866 -12.1757  -6.6138  -6.5473  -2.4347  -1.8557
     2.0795   2.5358   8.3893   8.6374

     occupation numbers 
     1.0000   1.0000   1.0000   1.0000   1.0000   1.0000   1.0000   1.0000
     0.0000   0.0000   0.0000   0.0000

          k =-0.5000-0.8660 0.0000 (  5540 PWs)   bands (ev):

   -13.9856 -13.8962 -12.9268 -12.8484  -6.1309  -6.0700  -2.2540  -1.8443
     1.8452   2.2418   7.6616   7.9001

     occupation numbers 
     1.0000   1.0000   1.0000   1.0000   1.0000   1.0000   1.0000   1.0000
     0.0000   0.0000   0.0000   0.0000

     the Fermi energy is     0.3326 ev

!    total energy              =     -48.24410000 Ry
     estimated scf accuracy    <       0.00000090 Ry
     smearing contrib. (-TS)   =      -0.00001491 Ry
     internal energy E=F+TS    =     -48.24408509 Ry

     The total energy is F=E-TS. E is the sum of the following terms:
     one-electron contribution =    -527.98321741 Ry
     hartree contribution      =     268.19749927 Ry
     xc contribution           =     -17.20829742 Ry
     ewald contribution        =     229.82618804 Ry
     electric field correction =      -1.07625757 Ry

     convergence has been achieved in   8 iterations

     Writing all to output data dir ./tmp/C2L_AB_Efield_PBE_vdW.save/

     init_run     :      9.68s CPU      9.85s WALL (       1 calls)
     electrons    :     16.30s CPU     17.21s WALL (       1 calls)

     Called by init_run:
     wfcinit      :      0.62s CPU      0.65s WALL (       1 calls)
     wfcinit:atom :      0.01s CPU      0.01s WALL (      74 calls)
     wfcinit:wfcr :      0.56s CPU      0.58s WALL (      74 calls)
     potinit      :      8.74s CPU      8.85s WALL (       1 calls)
     hinit0       :      0.30s CPU      0.33s WALL (       1 calls)

     Called by electrons:
     c_bands      :     14.31s CPU     15.06s WALL (       8 calls)
     sum_band     :      1.61s CPU      1.68s WALL (       8 calls)
     v_of_rho     :      9.09s CPU      9.24s WALL (       9 calls)
     v_h          :      0.00s CPU      0.00s WALL (       9 calls)
     v_xc         :      9.09s CPU      9.23s WALL (       9 calls)
     mix_rho      :      0.01s CPU      0.04s WALL (       8 calls)
     vdW_kernel   :      8.67s CPU      8.77s WALL (       1 calls)

     Called by c_bands:
     init_us_2    :      0.20s CPU      0.20s WALL (    1258 calls)
     init_us_2:cp :      0.20s CPU      0.20s WALL (    1258 calls)
     cegterg      :     13.89s CPU     14.61s WALL (     592 calls)

     Called by sum_band:
     sum_band:wei :      0.01s CPU      0.01s WALL (       8 calls)
     sum_band:loo :      1.59s CPU      1.67s WALL (       8 calls)
     sum_band:buf :      0.02s CPU      0.03s WALL (     592 calls)
     sum_band:ini :      0.09s CPU      0.09s WALL (     592 calls)

     Called by *egterg:
     cdiaghg      :      0.68s CPU      0.71s WALL (    3546 calls)
     cegterg:over :      0.85s CPU      0.89s WALL (    2954 calls)
     cegterg:upda :      0.68s CPU      0.87s WALL (    2954 calls)
     cegterg:last :      0.77s CPU      0.70s WALL (    1517 calls)
     h_psi        :     10.79s CPU     11.23s WALL (    3620 calls)
     g_psi        :      0.07s CPU      0.10s WALL (    2954 calls)

     Called by h_psi:
     h_psi:calbec :      0.88s CPU      0.92s WALL (    3620 calls)
     vloc_psi     :      8.94s CPU      9.39s WALL (    3620 calls)
     add_vuspsi   :      0.89s CPU      0.82s WALL (    3620 calls)

     General routines
     calbec       :      0.87s CPU      0.90s WALL (    3620 calls)
     fft          :      0.44s CPU      0.47s WALL (     540 calls)
     ffts         :      0.00s CPU      0.00s WALL (       8 calls)
     fftw         :      9.35s CPU      9.78s WALL (   51454 calls)

     Parallel routines

     PWSCF        :     26.18s CPU     27.38s WALL


   This run was terminated on:   9:40:36  15Apr2024            

=------------------------------------------------------------------------------=
   JOB DONE.
=------------------------------------------------------------------------------=
