
     Program PWSCF v.6.7MaX starts on 14Feb2024 at 12:34:40 

     This program is part of the open-source Quantum ESPRESSO suite
     for quantum simulation of materials; please cite
         "P. Giannozzi et al., J. Phys.:Condens. Matter 21 395502 (2009);
         "P. Giannozzi et al., J. Phys.:Condens. Matter 29 465901 (2017);
          URL http://www.quantum-espresso.org", 
     in publications or presentations arising from this work. More details at
     http://www.quantum-espresso.org/quote

     Parallel version (MPI), running on     1 processors

     MPI processes distributed on     1 nodes
     Waiting for input...
     Reading input from standard input

     Current dimensions of program PWSCF are:
     Max number of different atomic species (ntypx) = 10
     Max number of k-points (npk) =  40000
     Max angular momentum in pseudopotentials (lmaxx) =  3
     Message from routine read_pp_mesh:
     mesh size missing, using the one in header

     Subspace diagonalization in iterative solution of the eigenvalue problem:
     a serial algorithm will be used


     G-vector sticks info
     --------------------
     sticks:   dense  smooth     PW     G-vecs:    dense   smooth      PW
     Sum         361     361    109                32597    32597    5621



     bravais-lattice index     =            4
     lattice parameter (alat)  =       4.6350  a.u.
     unit-cell volume          =     517.4056 (a.u.)^3
     number of atoms/cell      =            2
     number of atomic types    =            1
     number of electrons       =         8.00
     number of Kohn-Sham states=            8
     kinetic-energy cutoff     =      60.0000  Ry
     charge density cutoff     =     240.0000  Ry
     scf convergence threshold =      1.0E-06
     mixing beta               =       0.7000
     number of iterations used =            8  plain     mixing
     Exchange-correlation= PZ
                           (   1   1   0   0   0   0   0)

     celldm(1)=   4.635000  celldm(2)=   0.000000  celldm(3)=   6.000000
     celldm(4)=   0.000000  celldm(5)=   0.000000  celldm(6)=   0.000000

     crystal axes: (cart. coord. in units of alat)
               a(1) = (   1.000000   0.000000   0.000000 )  
               a(2) = (  -0.500000   0.866025   0.000000 )  
               a(3) = (   0.000000   0.000000   6.000000 )  

     reciprocal axes: (cart. coord. in units 2 pi/alat)
               b(1) = (  1.000000  0.577350 -0.000000 )  
               b(2) = (  0.000000  1.154701  0.000000 )  
               b(3) = (  0.000000 -0.000000  0.166667 )  


     PseudoPot. # 1 for C  read from file:
     ../../../../Pseudo/LDA/C.upf
     MD5 check sum: 9ef9f0a1c6c947210c7947280cfb54e2
     Pseudo is Norm-conserving + core correction, Zval =  4.0
     Generated using ONCVPSP code by D. R. Hamann
     Using radial grid of 1230 points,  4 beta functions with: 
                l(1) =   0
                l(2) =   0
                l(3) =   1
                l(4) =   1

     atomic species   valence    mass     pseudopotential
        C              4.00    12.01100     C ( 1.00)

     24 Sym. Ops., with inversion, found (12 have fractional translation)


                                    s                        frac. trans.

      isym =  1     identity                                     

 cryst.   s( 1) = (     1          0          0      )
                  (     0          1          0      )
                  (     0          0          1      )

 cart.    s( 1) = (  1.0000000  0.0000000  0.0000000 )
                  (  0.0000000  1.0000000  0.0000000 )
                  (  0.0000000  0.0000000  1.0000000 )


      isym =  2     180 deg rotation - cart. axis [0,0,1]        

 cryst.   s( 2) = (    -1          0          0      )    f =( -0.3333333 )
                  (     0         -1          0      )       (  0.3333333 )
                  (     0          0          1      )       (  0.0000000 )

 cart.    s( 2) = ( -1.0000000  0.0000000  0.0000000 )    f =( -0.5000000 )
                  (  0.0000000 -1.0000000  0.0000000 )       (  0.2886751 )
                  (  0.0000000  0.0000000  1.0000000 )       (  0.0000000 )


      isym =  3     180 deg rotation - cart. axis [0,1,0]        

 cryst.   s( 3) = (    -1          0          0      )
                  (     1          1          0      )
                  (     0          0         -1      )

 cart.    s( 3) = ( -1.0000000  0.0000000  0.0000000 )
                  (  0.0000000  1.0000000  0.0000000 )
                  (  0.0000000  0.0000000 -1.0000000 )


      isym =  4     180 deg rotation - cart. axis [1,0,0]        

 cryst.   s( 4) = (     1          0          0      )    f =( -0.3333333 )
                  (    -1         -1          0      )       (  0.3333333 )
                  (     0          0         -1      )       (  0.0000000 )

 cart.    s( 4) = (  1.0000000  0.0000000  0.0000000 )    f =( -0.5000000 )
                  (  0.0000000 -1.0000000  0.0000000 )       (  0.2886751 )
                  (  0.0000000  0.0000000 -1.0000000 )       (  0.0000000 )


      isym =  5      60 deg rotation - cryst. axis [0,0,1]       

 cryst.   s( 5) = (     1          1          0      )    f =( -0.3333333 )
                  (    -1          0          0      )       (  0.3333333 )
                  (     0          0          1      )       (  0.0000000 )

 cart.    s( 5) = (  0.5000000 -0.8660254  0.0000000 )    f =( -0.5000000 )
                  (  0.8660254  0.5000000  0.0000000 )       (  0.2886751 )
                  (  0.0000000  0.0000000  1.0000000 )       (  0.0000000 )


      isym =  6      60 deg rotation - cryst. axis [0,0,-1]      

 cryst.   s( 6) = (     0         -1          0      )    f =( -0.3333333 )
                  (     1          1          0      )       (  0.3333333 )
                  (     0          0          1      )       (  0.0000000 )

 cart.    s( 6) = (  0.5000000  0.8660254  0.0000000 )    f =( -0.5000000 )
                  ( -0.8660254  0.5000000  0.0000000 )       (  0.2886751 )
                  (  0.0000000  0.0000000  1.0000000 )       (  0.0000000 )


      isym =  7     120 deg rotation - cryst. axis [0,0,1]       

 cryst.   s( 7) = (     0          1          0      )
                  (    -1         -1          0      )
                  (     0          0          1      )

 cart.    s( 7) = ( -0.5000000 -0.8660254  0.0000000 )
                  (  0.8660254 -0.5000000  0.0000000 )
                  (  0.0000000  0.0000000  1.0000000 )


      isym =  8     120 deg rotation - cryst. axis [0,0,-1]      

 cryst.   s( 8) = (    -1         -1          0      )
                  (     1          0          0      )
                  (     0          0          1      )

 cart.    s( 8) = ( -0.5000000  0.8660254  0.0000000 )
                  ( -0.8660254 -0.5000000  0.0000000 )
                  (  0.0000000  0.0000000  1.0000000 )


      isym =  9     180 deg rotation - cryst. axis [1,-1,0]      

 cryst.   s( 9) = (     0         -1          0      )
                  (    -1          0          0      )
                  (     0          0         -1      )

 cart.    s( 9) = (  0.5000000 -0.8660254  0.0000000 )
                  ( -0.8660254 -0.5000000  0.0000000 )
                  (  0.0000000  0.0000000 -1.0000000 )


      isym = 10     180 deg rotation - cryst. axis [2,1,0]       

 cryst.   s(10) = (     1          1          0      )
                  (     0         -1          0      )
                  (     0          0         -1      )

 cart.    s(10) = (  0.5000000  0.8660254  0.0000000 )
                  (  0.8660254 -0.5000000  0.0000000 )
                  (  0.0000000  0.0000000 -1.0000000 )


      isym = 11     180 deg rotation - cryst. axis [0,1,0]       

 cryst.   s(11) = (    -1         -1          0      )    f =( -0.3333333 )
                  (     0          1          0      )       (  0.3333333 )
                  (     0          0         -1      )       (  0.0000000 )

 cart.    s(11) = ( -0.5000000 -0.8660254  0.0000000 )    f =( -0.5000000 )
                  ( -0.8660254  0.5000000  0.0000000 )       (  0.2886751 )
                  (  0.0000000  0.0000000 -1.0000000 )       (  0.0000000 )


      isym = 12     180 deg rotation - cryst. axis [1,1,0]       

 cryst.   s(12) = (     0          1          0      )    f =( -0.3333333 )
                  (     1          0          0      )       (  0.3333333 )
                  (     0          0         -1      )       (  0.0000000 )

 cart.    s(12) = ( -0.5000000  0.8660254  0.0000000 )    f =( -0.5000000 )
                  (  0.8660254  0.5000000  0.0000000 )       (  0.2886751 )
                  (  0.0000000  0.0000000 -1.0000000 )       (  0.0000000 )


      isym = 13     inversion                                    

 cryst.   s(13) = (    -1          0          0      )    f =( -0.3333333 )
                  (     0         -1          0      )       (  0.3333333 )
                  (     0          0         -1      )       (  0.0000000 )

 cart.    s(13) = ( -1.0000000  0.0000000  0.0000000 )    f =( -0.5000000 )
                  (  0.0000000 -1.0000000  0.0000000 )       (  0.2886751 )
                  (  0.0000000  0.0000000 -1.0000000 )       (  0.0000000 )


      isym = 14     inv. 180 deg rotation - cart. axis [0,0,1]   

 cryst.   s(14) = (     1          0          0      )
                  (     0          1          0      )
                  (     0          0         -1      )

 cart.    s(14) = (  1.0000000  0.0000000  0.0000000 )
                  (  0.0000000  1.0000000  0.0000000 )
                  (  0.0000000  0.0000000 -1.0000000 )


      isym = 15     inv. 180 deg rotation - cart. axis [0,1,0]   

 cryst.   s(15) = (     1          0          0      )    f =( -0.3333333 )
                  (    -1         -1          0      )       (  0.3333333 )
                  (     0          0          1      )       (  0.0000000 )

 cart.    s(15) = (  1.0000000  0.0000000  0.0000000 )    f =( -0.5000000 )
                  (  0.0000000 -1.0000000  0.0000000 )       (  0.2886751 )
                  (  0.0000000  0.0000000  1.0000000 )       (  0.0000000 )


      isym = 16     inv. 180 deg rotation - cart. axis [1,0,0]   

 cryst.   s(16) = (    -1          0          0      )
                  (     1          1          0      )
                  (     0          0          1      )

 cart.    s(16) = ( -1.0000000  0.0000000  0.0000000 )
                  (  0.0000000  1.0000000  0.0000000 )
                  (  0.0000000  0.0000000  1.0000000 )


      isym = 17     inv.  60 deg rotation - cryst. axis [0,0,1]  

 cryst.   s(17) = (    -1         -1          0      )
                  (     1          0          0      )
                  (     0          0         -1      )

 cart.    s(17) = ( -0.5000000  0.8660254  0.0000000 )
                  ( -0.8660254 -0.5000000  0.0000000 )
                  (  0.0000000  0.0000000 -1.0000000 )


      isym = 18     inv.  60 deg rotation - cryst. axis [0,0,-1] 

 cryst.   s(18) = (     0          1          0      )
                  (    -1         -1          0      )
                  (     0          0         -1      )

 cart.    s(18) = ( -0.5000000 -0.8660254  0.0000000 )
                  (  0.8660254 -0.5000000  0.0000000 )
                  (  0.0000000  0.0000000 -1.0000000 )


      isym = 19     inv. 120 deg rotation - cryst. axis [0,0,1]  

 cryst.   s(19) = (     0         -1          0      )    f =( -0.3333333 )
                  (     1          1          0      )       (  0.3333333 )
                  (     0          0         -1      )       (  0.0000000 )

 cart.    s(19) = (  0.5000000  0.8660254  0.0000000 )    f =( -0.5000000 )
                  ( -0.8660254  0.5000000  0.0000000 )       (  0.2886751 )
                  (  0.0000000  0.0000000 -1.0000000 )       (  0.0000000 )


      isym = 20     inv. 120 deg rotation - cryst. axis [0,0,-1] 

 cryst.   s(20) = (     1          1          0      )    f =( -0.3333333 )
                  (    -1          0          0      )       (  0.3333333 )
                  (     0          0         -1      )       (  0.0000000 )

 cart.    s(20) = (  0.5000000 -0.8660254  0.0000000 )    f =( -0.5000000 )
                  (  0.8660254  0.5000000  0.0000000 )       (  0.2886751 )
                  (  0.0000000  0.0000000 -1.0000000 )       (  0.0000000 )


      isym = 21     inv. 180 deg rotation - cryst. axis [1,-1,0] 

 cryst.   s(21) = (     0          1          0      )    f =( -0.3333333 )
                  (     1          0          0      )       (  0.3333333 )
                  (     0          0          1      )       (  0.0000000 )

 cart.    s(21) = ( -0.5000000  0.8660254  0.0000000 )    f =( -0.5000000 )
                  (  0.8660254  0.5000000  0.0000000 )       (  0.2886751 )
                  (  0.0000000  0.0000000  1.0000000 )       (  0.0000000 )


      isym = 22     inv. 180 deg rotation - cryst. axis [2,1,0]  

 cryst.   s(22) = (    -1         -1          0      )    f =( -0.3333333 )
                  (     0          1          0      )       (  0.3333333 )
                  (     0          0          1      )       (  0.0000000 )

 cart.    s(22) = ( -0.5000000 -0.8660254  0.0000000 )    f =( -0.5000000 )
                  ( -0.8660254  0.5000000  0.0000000 )       (  0.2886751 )
                  (  0.0000000  0.0000000  1.0000000 )       (  0.0000000 )


      isym = 23     inv. 180 deg rotation - cryst. axis [0,1,0]  

 cryst.   s(23) = (     1          1          0      )
                  (     0         -1          0      )
                  (     0          0          1      )

 cart.    s(23) = (  0.5000000  0.8660254  0.0000000 )
                  (  0.8660254 -0.5000000  0.0000000 )
                  (  0.0000000  0.0000000  1.0000000 )


      isym = 24     inv. 180 deg rotation - cryst. axis [1,1,0]  

 cryst.   s(24) = (     0         -1          0      )
                  (    -1          0          0      )
                  (     0          0          1      )

 cart.    s(24) = (  0.5000000 -0.8660254  0.0000000 )
                  ( -0.8660254 -0.5000000  0.0000000 )
                  (  0.0000000  0.0000000  1.0000000 )


     point group D_6h(6/mmm)
     there are 12 classes
     the character table:

       E     2C6   2C3   C2    3C2'  3C2'' i     2S3   2S6   s_h   3s_d  3s_v 
A_1g   1.00  1.00  1.00  1.00  1.00  1.00  1.00  1.00  1.00  1.00  1.00  1.00
A_2g   1.00  1.00  1.00  1.00 -1.00 -1.00  1.00  1.00  1.00  1.00 -1.00 -1.00
B_1g   1.00 -1.00  1.00 -1.00  1.00 -1.00  1.00 -1.00  1.00 -1.00  1.00 -1.00
B_2g   1.00 -1.00  1.00 -1.00 -1.00  1.00  1.00 -1.00  1.00 -1.00 -1.00  1.00
E_1g   2.00  1.00 -1.00 -2.00  0.00  0.00  2.00  1.00 -1.00 -2.00  0.00  0.00
E_2g   2.00 -1.00 -1.00  2.00  0.00  0.00  2.00 -1.00 -1.00  2.00  0.00  0.00
A_1u   1.00  1.00  1.00  1.00  1.00  1.00 -1.00 -1.00 -1.00 -1.00 -1.00 -1.00
A_2u   1.00  1.00  1.00  1.00 -1.00 -1.00 -1.00 -1.00 -1.00 -1.00  1.00  1.00
B_1u   1.00 -1.00  1.00 -1.00  1.00 -1.00 -1.00  1.00 -1.00  1.00 -1.00  1.00
B_2u   1.00 -1.00  1.00 -1.00 -1.00  1.00 -1.00  1.00 -1.00  1.00  1.00 -1.00
E_1u   2.00  1.00 -1.00 -2.00  0.00  0.00 -2.00 -1.00  1.00  2.00  0.00  0.00
E_2u   2.00 -1.00 -1.00  2.00  0.00  0.00 -2.00  1.00  1.00 -2.00  0.00  0.00

     the symmetry operations in each class and the name of the first element:

     E        1
          identity                                               
     2C6      5    6
           60 deg rotation - cryst. axis [0,0,1]                 
     2C3      7    8
          120 deg rotation - cryst. axis [0,0,1]                 
     C2       2
          180 deg rotation - cart. axis [0,0,1]                  
     3C2'     4   12   11
          180 deg rotation - cart. axis [1,0,0]                  
     3C2''    3    9   10
          180 deg rotation - cart. axis [0,1,0]                  
     i       13
          inversion                                              
     2S3     17   18
          inv.  60 deg rotation - cryst. axis [0,0,1]            
     2S6     19   20
          inv. 120 deg rotation - cryst. axis [0,0,1]            
     s_h     14
          inv. 180 deg rotation - cart. axis [0,0,1]             
     3s_d    16   24   23
          inv. 180 deg rotation - cart. axis [1,0,0]             
     3s_v    15   21   22
          inv. 180 deg rotation - cart. axis [0,1,0]             

   Cartesian axes

     site n.     atom                  positions (alat units)
         1           C   tau(   1) = (   0.0000000   0.0000000   0.0000000  )
         2           C   tau(   2) = (  -0.0000000   0.5773503   0.0000000  )

   Crystallographic axes

     site n.     atom                  positions (cryst. coord.)
         1           C   tau(   1) = (  0.0000000  0.0000000  0.0000000  )
         2           C   tau(   2) = (  0.3333333  0.6666667  0.0000000  )

     number of k points=    44  Marzari-Vanderbilt smearing, width (Ry)=  0.0100
                       cart. coord. in units 2pi/alat
        k(    1) = (   0.0000000   0.0000000   0.0000000), wk =   0.0050000
        k(    2) = (   0.0000000   0.0577350   0.0000000), wk =   0.0300000
        k(    3) = (   0.0000000   0.1154701   0.0000000), wk =   0.0300000
        k(    4) = (   0.0000000   0.1732051   0.0000000), wk =   0.0300000
        k(    5) = (   0.0000000   0.2309401   0.0000000), wk =   0.0300000
        k(    6) = (   0.0000000   0.2886751   0.0000000), wk =   0.0300000
        k(    7) = (   0.0000000   0.3464102   0.0000000), wk =   0.0300000
        k(    8) = (   0.0000000   0.4041452   0.0000000), wk =   0.0300000
        k(    9) = (   0.0000000   0.4618802   0.0000000), wk =   0.0300000
        k(   10) = (   0.0000000   0.5196152   0.0000000), wk =   0.0300000
        k(   11) = (   0.0000000  -0.5773503   0.0000000), wk =   0.0150000
        k(   12) = (   0.0500000   0.0866025   0.0000000), wk =   0.0300000
        k(   13) = (   0.0500000   0.1443376   0.0000000), wk =   0.0600000
        k(   14) = (   0.0500000   0.2020726   0.0000000), wk =   0.0600000
        k(   15) = (   0.0500000   0.2598076   0.0000000), wk =   0.0600000
        k(   16) = (   0.0500000   0.3175426   0.0000000), wk =   0.0600000
        k(   17) = (   0.0500000   0.3752777   0.0000000), wk =   0.0600000
        k(   18) = (   0.0500000   0.4330127   0.0000000), wk =   0.0600000
        k(   19) = (   0.0500000   0.4907477   0.0000000), wk =   0.0600000
        k(   20) = (   0.0500000   0.5484828   0.0000000), wk =   0.0600000
        k(   21) = (   0.1000000   0.1732051   0.0000000), wk =   0.0300000
        k(   22) = (   0.1000000   0.2309401   0.0000000), wk =   0.0600000
        k(   23) = (   0.1000000   0.2886751   0.0000000), wk =   0.0600000
        k(   24) = (   0.1000000   0.3464102   0.0000000), wk =   0.0600000
        k(   25) = (   0.1000000   0.4041452   0.0000000), wk =   0.0600000
        k(   26) = (   0.1000000   0.4618802   0.0000000), wk =   0.0600000
        k(   27) = (   0.1000000   0.5196152   0.0000000), wk =   0.0600000
        k(   28) = (   0.1000000   0.5773503   0.0000000), wk =   0.0300000
        k(   29) = (   0.1500000   0.2598076   0.0000000), wk =   0.0300000
        k(   30) = (   0.1500000   0.3175426   0.0000000), wk =   0.0600000
        k(   31) = (   0.1500000   0.3752777   0.0000000), wk =   0.0600000
        k(   32) = (   0.1500000   0.4330127   0.0000000), wk =   0.0600000
        k(   33) = (   0.1500000   0.4907477   0.0000000), wk =   0.0600000
        k(   34) = (   0.1500000   0.5484828   0.0000000), wk =   0.0600000
        k(   35) = (   0.2000000   0.3464102   0.0000000), wk =   0.0300000
        k(   36) = (   0.2000000   0.4041452   0.0000000), wk =   0.0600000
        k(   37) = (   0.2000000   0.4618802   0.0000000), wk =   0.0600000
        k(   38) = (   0.2000000   0.5196152   0.0000000), wk =   0.0600000
        k(   39) = (   0.2000000   0.5773503   0.0000000), wk =   0.0300000
        k(   40) = (   0.2500000   0.4330127   0.0000000), wk =   0.0300000
        k(   41) = (   0.2500000   0.4907477   0.0000000), wk =   0.0600000
        k(   42) = (   0.2500000   0.5484828   0.0000000), wk =   0.0600000
        k(   43) = (   0.3000000   0.5196152   0.0000000), wk =   0.0300000
        k(   44) = (   0.3000000   0.5773503   0.0000000), wk =   0.0300000

                       cryst. coord.
        k(    1) = (   0.0000000   0.0000000   0.0000000), wk =   0.0050000
        k(    2) = (   0.0000000   0.0500000   0.0000000), wk =   0.0300000
        k(    3) = (   0.0000000   0.1000000   0.0000000), wk =   0.0300000
        k(    4) = (   0.0000000   0.1500000   0.0000000), wk =   0.0300000
        k(    5) = (   0.0000000   0.2000000   0.0000000), wk =   0.0300000
        k(    6) = (   0.0000000   0.2500000   0.0000000), wk =   0.0300000
        k(    7) = (   0.0000000   0.3000000   0.0000000), wk =   0.0300000
        k(    8) = (   0.0000000   0.3500000   0.0000000), wk =   0.0300000
        k(    9) = (   0.0000000   0.4000000   0.0000000), wk =   0.0300000
        k(   10) = (   0.0000000   0.4500000   0.0000000), wk =   0.0300000
        k(   11) = (   0.0000000  -0.5000000   0.0000000), wk =   0.0150000
        k(   12) = (   0.0500000   0.0500000   0.0000000), wk =   0.0300000
        k(   13) = (   0.0500000   0.1000000   0.0000000), wk =   0.0600000
        k(   14) = (   0.0500000   0.1500000   0.0000000), wk =   0.0600000
        k(   15) = (   0.0500000   0.2000000   0.0000000), wk =   0.0600000
        k(   16) = (   0.0500000   0.2500000   0.0000000), wk =   0.0600000
        k(   17) = (   0.0500000   0.3000000   0.0000000), wk =   0.0600000
        k(   18) = (   0.0500000   0.3500000   0.0000000), wk =   0.0600000
        k(   19) = (   0.0500000   0.4000000   0.0000000), wk =   0.0600000
        k(   20) = (   0.0500000   0.4500000   0.0000000), wk =   0.0600000
        k(   21) = (   0.1000000   0.1000000   0.0000000), wk =   0.0300000
        k(   22) = (   0.1000000   0.1500000   0.0000000), wk =   0.0600000
        k(   23) = (   0.1000000   0.2000000   0.0000000), wk =   0.0600000
        k(   24) = (   0.1000000   0.2500000   0.0000000), wk =   0.0600000
        k(   25) = (   0.1000000   0.3000000   0.0000000), wk =   0.0600000
        k(   26) = (   0.1000000   0.3500000   0.0000000), wk =   0.0600000
        k(   27) = (   0.1000000   0.4000000   0.0000000), wk =   0.0600000
        k(   28) = (   0.1000000   0.4500000   0.0000000), wk =   0.0300000
        k(   29) = (   0.1500000   0.1500000   0.0000000), wk =   0.0300000
        k(   30) = (   0.1500000   0.2000000   0.0000000), wk =   0.0600000
        k(   31) = (   0.1500000   0.2500000   0.0000000), wk =   0.0600000
        k(   32) = (   0.1500000   0.3000000   0.0000000), wk =   0.0600000
        k(   33) = (   0.1500000   0.3500000   0.0000000), wk =   0.0600000
        k(   34) = (   0.1500000   0.4000000   0.0000000), wk =   0.0600000
        k(   35) = (   0.2000000   0.2000000   0.0000000), wk =   0.0300000
        k(   36) = (   0.2000000   0.2500000   0.0000000), wk =   0.0600000
        k(   37) = (   0.2000000   0.3000000   0.0000000), wk =   0.0600000
        k(   38) = (   0.2000000   0.3500000   0.0000000), wk =   0.0600000
        k(   39) = (   0.2000000   0.4000000   0.0000000), wk =   0.0300000
        k(   40) = (   0.2500000   0.2500000   0.0000000), wk =   0.0300000
        k(   41) = (   0.2500000   0.3000000   0.0000000), wk =   0.0600000
        k(   42) = (   0.2500000   0.3500000   0.0000000), wk =   0.0600000
        k(   43) = (   0.3000000   0.3000000   0.0000000), wk =   0.0300000
        k(   44) = (   0.3000000   0.3500000   0.0000000), wk =   0.0300000

     Dense  grid:    32597 G-vectors     FFT dimensions: (  24,  24, 144)

     Dynamical RAM for                 wfc:       0.50 MB

     Dynamical RAM for     wfc (w. buffer):      22.31 MB

     Dynamical RAM for           str. fact:       0.50 MB

     Dynamical RAM for           local pot:       0.00 MB

     Dynamical RAM for          nlocal pot:       0.99 MB

     Dynamical RAM for                qrad:       0.36 MB

     Dynamical RAM for          rho,v,vnew:       3.39 MB

     Dynamical RAM for               rhoin:       1.13 MB

     Dynamical RAM for            rho*nmix:       7.96 MB

     Dynamical RAM for           G-vectors:       2.11 MB

     Dynamical RAM for          h,s,v(r/c):       0.01 MB

     Dynamical RAM for          <psi|beta>:       0.00 MB

     Dynamical RAM for                 psi:       0.99 MB

     Dynamical RAM for                hpsi:       0.99 MB

     Dynamical RAM for      wfcinit/wfcrot:       0.99 MB

     Estimated static dynamical RAM per process >      42.90 MB

     Estimated max dynamical RAM per process >      44.90 MB

     Initial potential from superposition of free atoms

     starting charge    7.99992, renormalised to    8.00000

     negative rho (up, down):  2.379E-05 0.000E+00
     Starting wfcs are    8 randomized atomic wfcs

     total cpu time spent up to now is        1.2 secs

     Self-consistent Calculation

     iteration #  1     ecut=    60.00 Ry     beta= 0.70
     Davidson diagonalization with overlap
     ethr =  1.00E-02,  avg # of iterations =  5.9

     negative rho (up, down):  3.638E-07 0.000E+00

     total cpu time spent up to now is        7.1 secs

     total energy              =     -24.08183711 Ry
     estimated scf accuracy    <       0.21123000 Ry

     iteration #  2     ecut=    60.00 Ry     beta= 0.70
     Davidson diagonalization with overlap
     ethr =  2.64E-03,  avg # of iterations =  4.0

     negative rho (up, down):  1.821E-08 0.000E+00

     total cpu time spent up to now is       10.8 secs

     total energy              =     -24.11526359 Ry
     estimated scf accuracy    <       0.00217907 Ry

     iteration #  3     ecut=    60.00 Ry     beta= 0.70
     Davidson diagonalization with overlap
     ethr =  2.72E-05,  avg # of iterations = 11.4

     total cpu time spent up to now is       17.8 secs

     total energy              =     -24.11571025 Ry
     estimated scf accuracy    <       0.00013640 Ry

     iteration #  4     ecut=    60.00 Ry     beta= 0.70
     Davidson diagonalization with overlap
     ethr =  1.71E-06,  avg # of iterations =  4.4

     total cpu time spent up to now is       21.3 secs

     total energy              =     -24.11572354 Ry
     estimated scf accuracy    <       0.00000298 Ry

     iteration #  5     ecut=    60.00 Ry     beta= 0.70
     Davidson diagonalization with overlap
     ethr =  3.73E-08,  avg # of iterations =  2.9

     total cpu time spent up to now is       25.3 secs

     End of self-consistent calculation

          k = 0.0000 0.0000 0.0000 (  4053 PWs)   bands (ev):

   -21.3552  -9.6642  -4.9079  -4.9079   1.4502   2.5071   3.0003   4.9282

     occupation numbers 
     1.0000   1.0000   1.0000   1.0000   0.0000   0.0000   0.0000   0.0000

          k = 0.0000 0.0577 0.0000 (  4061 PWs)   bands (ev):

   -21.2960  -9.5924  -5.1464  -5.0383   1.5307   2.5886   3.0830   5.0091

     occupation numbers 
     1.0000   1.0000   1.0000   1.0000   0.0000   0.0000   0.0000   0.0000

          k = 0.0000 0.1155 0.0000 (  4060 PWs)   bands (ev):

   -21.1184  -9.3768  -5.8165  -5.3926   1.7723   2.8330   3.3305   5.2517

     occupation numbers 
     1.0000   1.0000   1.0000   1.0000   0.0000   0.0000   0.0000   0.0000

          k = 0.0000 0.1732 0.0000 (  4076 PWs)   bands (ev):

   -20.8234  -9.0208  -6.8024  -5.8864   2.1750   3.2392   3.7433   5.6541

     occupation numbers 
     1.0000   1.0000   1.0000   1.0000   0.0000   0.0000   0.0000   0.0000

          k = 0.0000 0.2309 0.0000 (  4068 PWs)   bands (ev):

   -20.4117  -8.5273  -7.9859  -6.4326   2.7384   3.8048   4.3210   6.2003

     occupation numbers 
     1.0000   1.0000   1.0000   1.0000   0.0000   0.0000   0.0000   0.0000

          k = 0.0000 0.2887 0.0000 (  4058 PWs)   bands (ev):

   -19.8853  -9.2742  -7.9031  -6.9651   3.4613   4.5076   5.0628   5.4469

     occupation numbers 
     1.0000   1.0000   1.0000   1.0000   0.0000   0.0000   0.0000   0.0000

          k = 0.0000 0.3464 0.0000 (  4056 PWs)   bands (ev):

   -19.2471 -10.5997  -7.4414  -7.1611   3.9811   4.3411   5.4654   5.9535

     occupation numbers 
     1.0000   1.0000   1.0000   1.0000   0.0000   0.0000   0.0000   0.0000

          k = 0.0000 0.4041 0.0000 (  4074 PWs)   bands (ev):

   -18.5007 -11.9154  -7.8342  -6.3241   2.5880   5.3649   6.0477   6.4958

     occupation numbers 
     1.0000   1.0000   1.0000   1.0000   0.0000   0.0000   0.0000   0.0000

          k = 0.0000 0.4619 0.0000 (  4074 PWs)   bands (ev):

   -17.6537 -13.1862  -8.1245  -5.4423   1.2720   5.8713   6.6062   7.6882

     occupation numbers 
     1.0000   1.0000   1.0000   1.0000   0.0000   0.0000   0.0000   0.0000

          k = 0.0000 0.5196 0.0000 (  4066 PWs)   bands (ev):

   -16.7285 -14.3716  -8.3027  -4.6508   0.2085   5.8029   7.9304   9.0175

     occupation numbers 
     1.0000   1.0000   1.0000   1.0000   0.0000   0.0000   0.0000   0.0000

          k = 0.0000-0.5774 0.0000 (  4104 PWs)   bands (ev):

   -16.0112 -15.1777  -8.3632  -4.2890  -0.2481   5.7758   9.3585   9.4430

     occupation numbers 
     1.0000   1.0000   1.0000   1.0000   0.0000   0.0000   0.0000   0.0000

          k = 0.0500 0.0866 0.0000 (  4065 PWs)   bands (ev):

   -21.1776  -9.4483  -5.5835  -5.2997   1.6917   2.7516   3.2479   5.1710

     occupation numbers 
     1.0000   1.0000   1.0000   1.0000   0.0000   0.0000   0.0000   0.0000

          k = 0.0500 0.1443 0.0000 (  4063 PWs)   bands (ev):

   -20.9413  -9.1626  -6.3718  -5.7626   2.0140   3.0769   3.5782   5.4935

     occupation numbers 
     1.0000   1.0000   1.0000   1.0000   0.0000   0.0000   0.0000   0.0000

          k = 0.0500 0.2021 0.0000 (  4065 PWs)   bands (ev):

   -20.5879  -8.7377  -7.4231  -6.3159   2.4973   3.5634   4.0736   5.9740

     occupation numbers 
     1.0000   1.0000   1.0000   1.0000   0.0000   0.0000   0.0000   0.0000

          k = 0.0500 0.2598 0.0000 (  4068 PWs)   bands (ev):

   -20.1190  -8.6366  -8.1786  -6.8788   3.1408   4.2051   4.7339   6.0077

     occupation numbers 
     1.0000   1.0000   1.0000   1.0000   0.0000   0.0000   0.0000   0.0000

          k = 0.0500 0.3175 0.0000 (  4067 PWs)   bands (ev):

   -19.5366  -9.9295  -7.4942  -7.3978   3.9429   4.5873   5.1002   5.5576

     occupation numbers 
     1.0000   1.0000   1.0000   1.0000   0.0000   0.0000   0.0000   0.0000

          k = 0.0500 0.3753 0.0000 (  4066 PWs)   bands (ev):

   -18.8443 -11.2414  -7.8399  -6.7012   3.2493   4.8999   6.0107   6.3523

     occupation numbers 
     1.0000   1.0000   1.0000   1.0000   0.0000   0.0000   0.0000   0.0000

          k = 0.0500 0.4330 0.0000 (  4064 PWs)   bands (ev):

   -18.0471 -12.5302  -8.1859  -5.8325   1.8911   5.9661   6.2767   7.1238

     occupation numbers 
     1.0000   1.0000   1.0000   1.0000   0.0000   0.0000   0.0000   0.0000

          k = 0.0500 0.4907 0.0000 (  4077 PWs)   bands (ev):

   -17.1571 -13.7599  -8.4225  -4.9691   0.6797   6.0958   7.3058   8.3806

     occupation numbers 
     1.0000   1.0000   1.0000   1.0000   0.0000   0.0000   0.0000   0.0000

          k = 0.0500 0.5485 0.0000 (  4075 PWs)   bands (ev):

   -16.2360 -14.8539  -8.5420  -4.3330  -0.1365   6.0451   8.7044   9.7396

     occupation numbers 
     1.0000   1.0000   1.0000   1.0000   0.0000   0.0000   0.0000   0.0000

          k = 0.1000 0.1732 0.0000 (  4073 PWs)   bands (ev):

   -20.6468  -8.8084  -7.1519  -6.3613   2.4170   3.4827   3.9912   5.8956

     occupation numbers 
     1.0000   1.0000   1.0000   1.0000   0.0000   0.0000   0.0000   0.0000

          k = 0.1000 0.2309 0.0000 (  4061 PWs)   bands (ev):

   -20.2360  -8.3171  -8.1450  -7.0191   2.9808   4.0483   4.5695   6.3401

     occupation numbers 
     1.0000   1.0000   1.0000   1.0000   0.0000   0.0000   0.0000   0.0000

          k = 0.1000 0.2887 0.0000 (  4060 PWs)   bands (ev):

   -19.7112  -9.3058  -7.6959  -7.6248   3.7041   4.7463   5.1564   5.3125

     occupation numbers 
     1.0000   1.0000   1.0000   1.0000   0.0000   0.0000   0.0000   0.0000

          k = 0.1000 0.3464 0.0000 (  4061 PWs)   bands (ev):

   -19.0748 -10.5538  -8.1409  -6.9566   3.7992   4.5851   5.6728   6.2184

     occupation numbers 
     1.0000   1.0000   1.0000   1.0000   0.0000   0.0000   0.0000   0.0000

          k = 0.1000 0.4041 0.0000 (  4053 PWs)   bands (ev):

   -18.3311 -11.8223  -8.5527  -6.1215   2.4673   5.6194   6.7034   7.0156

     occupation numbers 
     1.0000   1.0000   1.0000   1.0000   0.0000   0.0000   0.0000   0.0000

          k = 0.1000 0.4619 0.0000 (  4055 PWs)   bands (ev):

   -17.4884 -13.0634  -8.8531  -5.2395   1.1982   6.7398   6.9720   7.8737

     occupation numbers 
     1.0000   1.0000   1.0000   1.0000   0.0000   0.0000   0.0000   0.0000

          k = 0.1000 0.5196 0.0000 (  4062 PWs)   bands (ev):

   -16.5697 -14.2295  -9.0354  -4.4416   0.1556   6.8020   8.1588   9.1422

     occupation numbers 
     1.0000   1.0000   1.0000   1.0000   0.0000   0.0000   0.0000   0.0000

          k = 0.1000 0.5774 0.0000 (  4064 PWs)   bands (ev):

   -15.8616 -15.0217  -9.0962  -4.0697  -0.2999   6.7763   9.5611   9.6603

     occupation numbers 
     1.0000   1.0000   1.0000   1.0000   0.0000   0.0000   0.0000   0.0000

          k = 0.1500 0.2598 0.0000 (  4058 PWs)   bands (ev):

   -19.7695  -8.9810  -7.8254  -7.7635   3.6245   4.6917   5.2305   5.3003

     occupation numbers 
     1.0000   1.0000   1.0000   1.0000   0.0000   0.0000   0.0000   0.0000

          k = 0.1500 0.3175 0.0000 (  4074 PWs)   bands (ev):

   -19.1906  -9.9875  -8.5382  -7.0862   4.1297   4.4267   5.4914   6.0561

     occupation numbers 
     1.0000   1.0000   1.0000   1.0000   0.0000   0.0000   0.0000   0.0000

          k = 0.1500 0.3753 0.0000 (  4055 PWs)   bands (ev):

   -18.5028 -11.1326  -9.0828  -6.2992   2.8960   5.3849   6.4375   7.0449

     occupation numbers 
     1.0000   1.0000   1.0000   1.0000   0.0000   0.0000   0.0000   0.0000

          k = 0.1500 0.4330 0.0000 (  4055 PWs)   bands (ev):

   -17.7127 -12.3277  -9.4763  -5.4340   1.6600   6.4938   7.5129   8.0301

     occupation numbers 
     1.0000   1.0000   1.0000   1.0000   0.0000   0.0000   0.0000   0.0000

          k = 0.1500 0.4907 0.0000 (  4056 PWs)   bands (ev):

   -16.8329 -13.5015  -9.7343  -4.5637   0.5238   7.7166   7.9786   8.6608

     occupation numbers 
     1.0000   1.0000   1.0000   1.0000   0.0000   0.0000   0.0000   0.0000

          k = 0.1500 0.5485 0.0000 (  4068 PWs)   bands (ev):

   -15.9287 -14.5596  -9.8629  -3.9035  -0.2761   7.8755   9.1420   9.6431

     occupation numbers 
     1.0000   1.0000   1.0000   1.0000   0.0000   0.0000   0.0000   0.0000

          k = 0.2000 0.3464 0.0000 (  4052 PWs)   bands (ev):

   -18.5601 -10.7485  -9.4221  -6.3591   3.0599   5.3060   6.3450   6.9640

     occupation numbers 
     1.0000   1.0000   1.0000   1.0000   0.0000   0.0000   0.0000   0.0000

          k = 0.2000 0.4041 0.0000 (  4051 PWs)   bands (ev):

   -17.8256 -11.6878 -10.0814  -5.5345   1.9415   6.3376   7.3195   8.0348

     occupation numbers 
     1.0000   1.0000   1.0000   1.0000   0.0000   0.0000   0.0000   0.0000

          k = 0.2000 0.4619 0.0000 (  4041 PWs)   bands (ev):

   -16.9958 -12.7585 -10.4924  -4.6542   0.8332   7.5134   8.3307   9.2261

     occupation numbers 
     1.0000   1.0000   1.0000   1.0000   0.0000   0.0000   0.0000   0.0000

          k = 0.2000 0.5196 0.0000 (  4058 PWs)   bands (ev):

   -16.0973 -13.8365 -10.7180  -3.8285  -0.1378   8.8053   9.1032   9.2205

     occupation numbers 
     1.0000   1.0000   1.0000   1.0000   0.0000   0.0000   0.0000   0.0000

          k = 0.2000 0.5774 0.0000 (  4060 PWs)   bands (ev):

   -15.4140 -14.5840 -10.7909  -3.4175  -0.5984   9.1646   9.3350  10.1339

     occupation numbers 
     1.0000   1.0000   1.0000   1.0000   0.0000   0.0000   0.0000   0.0000

          k = 0.2500 0.4330 0.0000 (  4056 PWs)   bands (ev):

   -17.0510 -12.3188 -10.9429  -4.6874   0.9553   7.4353   8.2089   9.1855

     occupation numbers 
     1.0000   1.0000   1.0000   1.0000   0.0000   0.0000   0.0000   0.0000

          k = 0.2500 0.4907 0.0000 (  4033 PWs)   bands (ev):

   -16.1942 -13.1514 -11.4713  -3.8061  -0.0167   8.6601   8.7729  10.4641

     occupation numbers 
     1.0000   1.0000   1.0000   1.0000   0.0000   0.0000   0.0000   0.0000

          k = 0.2500 0.5485 0.0000 (  4046 PWs)   bands (ev):

   -15.3229 -14.0620 -11.6925  -3.0679  -0.8013   8.8717   9.9525  10.4844

     occupation numbers 
     1.0000   1.0000   1.0000   1.0000   0.0000   0.0000   0.0000   0.0000

          k = 0.3000 0.5196 0.0000 (  4032 PWs)   bands (ev):

   -15.3393 -13.6343 -12.2035  -2.9384  -0.8715   8.6864   9.8820  11.2954

     occupation numbers 
     1.0000   1.0000   1.0000   1.0000   0.0000   0.0000   0.0000   0.0000

          k = 0.3000 0.5774 0.0000 (  4034 PWs)   bands (ev):

   -14.6695 -14.1743 -12.4562  -2.3439  -1.4589   8.5952  10.8974  11.0363

     occupation numbers 
     1.0000   1.0000   1.0000   1.0000   0.0000   0.0000   0.0000   0.0000

     the Fermi energy is    -2.2186 ev

!    total energy              =     -24.11572499 Ry
     estimated scf accuracy    <       0.00000006 Ry
     smearing contrib. (-TS)   =       0.00002446 Ry
     internal energy E=F+TS    =     -24.11574946 Ry

     The total energy is F=E-TS. E is the sum of the following terms:
     one-electron contribution =    -154.91586893 Ry
     hartree contribution      =      78.91411899 Ry
     xc contribution           =      -8.55673559 Ry
     ewald contribution        =      60.44273608 Ry

     convergence has been achieved in   5 iterations

     Forces acting on atoms (cartesian axes, Ry/au):

     atom    1 type  1   force =     0.00000000    0.00000000    0.00000000
     atom    2 type  1   force =    -0.00000000    0.00000000    0.00000000
     The non-local contrib.  to forces
     atom    1 type  1   force =     0.00000000    0.00000000    0.00000000
     atom    2 type  1   force =     0.00000000   -0.00000000    0.00000000
     The ionic contribution  to forces
     atom    1 type  1   force =    -0.00000001    0.00000000   -0.00000000
     atom    2 type  1   force =     0.00000001   -0.00000000   -0.00000000
     The local contribution  to forces
     atom    1 type  1   force =     0.00000000    0.00000000    0.00000000
     atom    2 type  1   force =     0.00000001   -0.00000000    0.00000000
     The core correction contribution to forces
     atom    1 type  1   force =     0.00000000   -0.00000000    0.00000000
     atom    2 type  1   force =    -0.00000000    0.00000000    0.00000000
     The Hubbard contrib.    to forces
     atom    1 type  1   force =     0.00000000    0.00000000    0.00000000
     atom    2 type  1   force =     0.00000000    0.00000000    0.00000000
     The SCF correction term to forces
     atom    1 type  1   force =     0.00000000   -0.00000000    0.00000000
     atom    2 type  1   force =    -0.00000000    0.00000000    0.00000000

     Total force =     0.000000     Total SCF correction =     0.000000


     Computing stress (Cartesian axis) and pressure

          total   stress  (Ry/bohr**3)                   (kbar)     P=      -14.27
  -0.00010294   0.00000000   0.00000000          -15.14        0.00        0.00
   0.00000000  -0.00010294   0.00000000            0.00      -15.14        0.00
  -0.00000000  -0.00000000  -0.00008518           -0.00       -0.00      -12.53

     kinetic stress (kbar)   3110.89      0.00      0.00
                                0.00   3110.89     -0.00
                                0.00      0.00   3410.43

     local   stress (kbar) -47077.79      0.00     -0.00
                                0.00 -47077.79      0.00
                               -0.00      0.00  48049.33

     nonloc. stress (kbar)   -377.67     -0.00     -0.00
                               -0.00   -377.67      0.00
                               -0.00      0.00   -316.42

     hartree stress (kbar)  22205.96     -0.00      0.00
                               -0.00  22205.96     -0.00
                                0.00     -0.00 -21975.62

     exc-cor stress (kbar)   -240.44      0.00      0.00
                                0.00   -240.44      0.00
                                0.00      0.00   -240.44

     corecor stress (kbar)   -469.59      0.00      0.00
                                0.00   -469.59     -0.00
                                0.00     -0.00   -457.44

     ewald   stress (kbar)  22833.51     -0.00     -0.00
                               -0.00  22833.51     -0.00
                               -0.00     -0.00 -28482.36

     hubbard stress (kbar)      0.00      0.00      0.00
                                0.00      0.00      0.00
                                0.00      0.00      0.00

     DFT-D   stress (kbar)      0.00      0.00      0.00
                                0.00      0.00      0.00
                                0.00      0.00      0.00

     XDM     stress (kbar)      0.00      0.00      0.00
                                0.00      0.00      0.00
                                0.00      0.00      0.00

     dft-nl  stress (kbar)      0.00      0.00      0.00
                                0.00      0.00      0.00
                                0.00      0.00      0.00

     TS-vdW  stress (kbar)      0.00      0.00      0.00
                                0.00      0.00      0.00
                                0.00      0.00      0.00



     Writing output data file ./tmp/graphene.save/

     init_run     :      2.55s CPU      1.20s WALL (       1 calls)
     electrons    :     54.19s CPU     24.06s WALL (       1 calls)
     forces       :      0.46s CPU      0.21s WALL (       1 calls)
     stress       :      2.88s CPU      1.37s WALL (       1 calls)

     Called by init_run:
     wfcinit      :      2.45s CPU      1.10s WALL (       1 calls)
     wfcinit:atom :      0.08s CPU      0.03s WALL (      44 calls)
     wfcinit:wfcr :      2.06s CPU      0.96s WALL (      44 calls)
     potinit      :      0.02s CPU      0.02s WALL (       1 calls)
     hinit0       :      0.06s CPU      0.06s WALL (       1 calls)

     Called by electrons:
     c_bands      :     51.59s CPU     22.16s WALL (       5 calls)
     sum_band     :      2.51s CPU      1.81s WALL (       5 calls)
     v_of_rho     :      0.04s CPU      0.04s WALL (       6 calls)
     v_h          :      0.01s CPU      0.01s WALL (       6 calls)
     v_xc         :      0.06s CPU      0.04s WALL (       8 calls)
     mix_rho      :      0.03s CPU      0.04s WALL (       5 calls)

     Called by c_bands:
     init_us_2    :      1.19s CPU      0.53s WALL (     572 calls)
     cegterg      :     49.19s CPU     21.24s WALL (     220 calls)

     Called by sum_band:
     sum_band:wei :      0.01s CPU      0.00s WALL (       5 calls)
     sum_band:loo :      2.47s CPU      1.76s WALL (       5 calls)
     sum_band:buf :      0.07s CPU      0.05s WALL (     220 calls)
     sum_band:ini :      0.26s CPU      0.19s WALL (     220 calls)

     Called by *egterg:
     cdiaghg      :      0.85s CPU      0.28s WALL (    1478 calls)
     cegterg:over :      1.85s CPU      0.81s WALL (    1258 calls)
     cegterg:upda :      1.57s CPU      0.65s WALL (    1258 calls)
     cegterg:last :      1.66s CPU      0.65s WALL (     628 calls)
     h_psi        :     43.90s CPU     19.34s WALL (    1522 calls)
     g_psi        :      0.56s CPU      0.16s WALL (    1258 calls)

     Called by h_psi:
     h_psi:calbec :      4.05s CPU      2.50s WALL (    1522 calls)
     vloc_psi     :     37.53s CPU     15.92s WALL (    1522 calls)
     add_vuspsi   :      1.91s CPU      0.78s WALL (    1522 calls)

     General routines
     calbec       :      4.27s CPU      2.63s WALL (    1742 calls)
     fft          :      0.07s CPU      0.05s WALL (      25 calls)
     ffts         :      0.01s CPU      0.01s WALL (       5 calls)
     fftw         :     31.18s CPU     13.68s WALL (   14406 calls)

     Parallel routines

     PWSCF        :   1m 0.28s CPU     26.97s WALL


   This run was terminated on:  12:35: 7  14Feb2024            

=------------------------------------------------------------------------------=
   JOB DONE.
=------------------------------------------------------------------------------=
