
     Program PWSCF v.7.2 starts on  4Apr2024 at 11:28:31 

     This program is part of the open-source Quantum ESPRESSO suite
     for quantum simulation of materials; please cite
         "P. Giannozzi et al., J. Phys.:Condens. Matter 21 395502 (2009);
         "P. Giannozzi et al., J. Phys.:Condens. Matter 29 465901 (2017);
         "P. Giannozzi et al., J. Chem. Phys. 152 154105 (2020);
          URL http://www.quantum-espresso.org", 
     in publications or presentations arising from this work. More details at
     http://www.quantum-espresso.org/quote

     Parallel version (MPI & OpenMP), running on       8 processor cores
     Number of MPI processes:                 8
     Threads/MPI process:                     1

     MPI processes distributed on     1 nodes
     0 MiB available memory on the printing compute node when the environment starts

     Waiting for input...
     Reading input from standard input

     Current dimensions of program PWSCF are:
     Max number of different atomic species (ntypx) = 10
     Max number of k-points (npk) =  40000
     Max angular momentum in pseudopotentials (lmaxx) =  4

     IMPORTANT: XC functional enforced from input :
     Exchange-correlation= VDW-DF2-B86R
                           (   1   4  26   0   2   0   0)
     Any further DFT definition will be discarded
     Please, verify this is what you really want


     R & G space division:  proc/nbgrp/npool/nimage =       8
     Subspace diagonalization in iterative solution of the eigenvalue problem:
     a serial algorithm will be used


     Parallelization info
     --------------------
     sticks:   dense  smooth     PW     G-vecs:    dense   smooth      PW
     Min          59      59     18                 2891     2891     484
     Max          60      60     19                 2900     2900     489
     Sum         475     475    151                23155    23155    3897

     Using Slab Decomposition



     bravais-lattice index     =            4
     lattice parameter (alat)  =       4.6645  a.u.
     unit-cell volume          =     239.5607 (a.u.)^3
     number of atoms/cell      =            4
     number of atomic types    =            1
     number of electrons       =        16.00
     number of Kohn-Sham states=           12
     kinetic-energy cutoff     =      80.0000  Ry
     charge density cutoff     =     320.0000  Ry
     scf convergence threshold =      1.0E-06
     mixing beta               =       0.7000
     number of iterations used =            8  plain     mixing
     energy convergence thresh.=      1.0E-04
     force convergence thresh. =      1.0E-03
     press convergence thresh. =      5.0E-01
     Exchange-correlation= VDW-DF2-B86R
                           (   1   4  26   0   2   0   0)
     nstep                     =           50


     celldm(1)=   4.664470  celldm(2)=   0.000000  celldm(3)=   2.725700
     celldm(4)=   0.000000  celldm(5)=   0.000000  celldm(6)=   0.000000

     crystal axes: (cart. coord. in units of alat)
               a(1) = (   1.000000   0.000000   0.000000 )  
               a(2) = (  -0.500000   0.866025   0.000000 )  
               a(3) = (   0.000000   0.000000   2.725700 )  

     reciprocal axes: (cart. coord. in units 2 pi/alat)
               b(1) = (  1.000000  0.577350 -0.000000 )  
               b(2) = (  0.000000  1.154701  0.000000 )  
               b(3) = (  0.000000 -0.000000  0.366878 )  


     PseudoPot. # 1 for C  read from file:
     ../../../Pseudo/PBE/C.upf
     MD5 check sum: 34a24e64c0a39f27c6c36b90a16ac686
     Pseudo is Norm-conserving + core correction, Zval =  4.0
     Generated using ONCVPSP code by D. R. Hamann
     Using radial grid of 1248 points,  4 beta functions with: 
                l(1) =   0
                l(2) =   0
                l(3) =   1
                l(4) =   1

     atomic species   valence    mass     pseudopotential
        C              4.00    12.01100     C ( 1.00)

     24 Sym. Ops., with inversion, found (12 have fractional translation)


                                    s                        frac. trans.

      isym =  1     identity                                     

 cryst.   s( 1) = (     1          0          0      )
                  (     0          1          0      )
                  (     0          0          1      )

 cart.    s( 1) = (  1.0000000  0.0000000  0.0000000 )
                  (  0.0000000  1.0000000  0.0000000 )
                  (  0.0000000  0.0000000  1.0000000 )


      isym =  2     180 deg rotation - cart. axis [0,0,1]        

 cryst.   s( 2) = (    -1          0          0      )    f =(  0.0000000 )
                  (     0         -1          0      )       (  0.0000000 )
                  (     0          0          1      )       ( -0.5000000 )

 cart.    s( 2) = ( -1.0000000  0.0000000  0.0000000 )    f =(  0.0000000 )
                  (  0.0000000 -1.0000000  0.0000000 )       (  0.0000000 )
                  (  0.0000000  0.0000000  1.0000000 )       ( -1.3628500 )


      isym =  3     180 deg rotation - cart. axis [0,1,0]        

 cryst.   s( 3) = (    -1          0          0      )
                  (     1          1          0      )
                  (     0          0         -1      )

 cart.    s( 3) = ( -1.0000000  0.0000000  0.0000000 )
                  (  0.0000000  1.0000000  0.0000000 )
                  (  0.0000000  0.0000000 -1.0000000 )


      isym =  4     180 deg rotation - cart. axis [1,0,0]        

 cryst.   s( 4) = (     1          0          0      )    f =(  0.0000000 )
                  (    -1         -1          0      )       (  0.0000000 )
                  (     0          0         -1      )       (  0.5000000 )

 cart.    s( 4) = (  1.0000000  0.0000000  0.0000000 )    f =(  0.0000000 )
                  (  0.0000000 -1.0000000  0.0000000 )       (  0.0000000 )
                  (  0.0000000  0.0000000 -1.0000000 )       (  1.3628500 )


      isym =  5      60 deg rotation - cryst. axis [0,0,1]       

 cryst.   s( 5) = (     1          1          0      )    f =(  0.0000000 )
                  (    -1          0          0      )       (  0.0000000 )
                  (     0          0          1      )       ( -0.5000000 )

 cart.    s( 5) = (  0.5000000 -0.8660254  0.0000000 )    f =(  0.0000000 )
                  (  0.8660254  0.5000000  0.0000000 )       (  0.0000000 )
                  (  0.0000000  0.0000000  1.0000000 )       ( -1.3628500 )


      isym =  6      60 deg rotation - cryst. axis [0,0,-1]      

 cryst.   s( 6) = (     0         -1          0      )    f =(  0.0000000 )
                  (     1          1          0      )       (  0.0000000 )
                  (     0          0          1      )       ( -0.5000000 )

 cart.    s( 6) = (  0.5000000  0.8660254  0.0000000 )    f =(  0.0000000 )
                  ( -0.8660254  0.5000000  0.0000000 )       (  0.0000000 )
                  (  0.0000000  0.0000000  1.0000000 )       ( -1.3628500 )


      isym =  7     120 deg rotation - cryst. axis [0,0,1]       

 cryst.   s( 7) = (     0          1          0      )
                  (    -1         -1          0      )
                  (     0          0          1      )

 cart.    s( 7) = ( -0.5000000 -0.8660254  0.0000000 )
                  (  0.8660254 -0.5000000  0.0000000 )
                  (  0.0000000  0.0000000  1.0000000 )


      isym =  8     120 deg rotation - cryst. axis [0,0,-1]      

 cryst.   s( 8) = (    -1         -1          0      )
                  (     1          0          0      )
                  (     0          0          1      )

 cart.    s( 8) = ( -0.5000000  0.8660254  0.0000000 )
                  ( -0.8660254 -0.5000000  0.0000000 )
                  (  0.0000000  0.0000000  1.0000000 )


      isym =  9     180 deg rotation - cryst. axis [1,-1,0]      

 cryst.   s( 9) = (     0         -1          0      )
                  (    -1          0          0      )
                  (     0          0         -1      )

 cart.    s( 9) = (  0.5000000 -0.8660254  0.0000000 )
                  ( -0.8660254 -0.5000000  0.0000000 )
                  (  0.0000000  0.0000000 -1.0000000 )


      isym = 10     180 deg rotation - cryst. axis [2,1,0]       

 cryst.   s(10) = (     1          1          0      )
                  (     0         -1          0      )
                  (     0          0         -1      )

 cart.    s(10) = (  0.5000000  0.8660254  0.0000000 )
                  (  0.8660254 -0.5000000  0.0000000 )
                  (  0.0000000  0.0000000 -1.0000000 )


      isym = 11     180 deg rotation - cryst. axis [0,1,0]       

 cryst.   s(11) = (    -1         -1          0      )    f =(  0.0000000 )
                  (     0          1          0      )       (  0.0000000 )
                  (     0          0         -1      )       (  0.5000000 )

 cart.    s(11) = ( -0.5000000 -0.8660254  0.0000000 )    f =(  0.0000000 )
                  ( -0.8660254  0.5000000  0.0000000 )       (  0.0000000 )
                  (  0.0000000  0.0000000 -1.0000000 )       (  1.3628500 )


      isym = 12     180 deg rotation - cryst. axis [1,1,0]       

 cryst.   s(12) = (     0          1          0      )    f =(  0.0000000 )
                  (     1          0          0      )       (  0.0000000 )
                  (     0          0         -1      )       (  0.5000000 )

 cart.    s(12) = ( -0.5000000  0.8660254  0.0000000 )    f =(  0.0000000 )
                  (  0.8660254  0.5000000  0.0000000 )       (  0.0000000 )
                  (  0.0000000  0.0000000 -1.0000000 )       (  1.3628500 )


      isym = 13     inversion                                    

 cryst.   s(13) = (    -1          0          0      )    f =(  0.0000000 )
                  (     0         -1          0      )       (  0.0000000 )
                  (     0          0         -1      )       (  0.5000000 )

 cart.    s(13) = ( -1.0000000  0.0000000  0.0000000 )    f =(  0.0000000 )
                  (  0.0000000 -1.0000000  0.0000000 )       (  0.0000000 )
                  (  0.0000000  0.0000000 -1.0000000 )       (  1.3628500 )


      isym = 14     inv. 180 deg rotation - cart. axis [0,0,1]   

 cryst.   s(14) = (     1          0          0      )
                  (     0          1          0      )
                  (     0          0         -1      )

 cart.    s(14) = (  1.0000000  0.0000000  0.0000000 )
                  (  0.0000000  1.0000000  0.0000000 )
                  (  0.0000000  0.0000000 -1.0000000 )


      isym = 15     inv. 180 deg rotation - cart. axis [0,1,0]   

 cryst.   s(15) = (     1          0          0      )    f =(  0.0000000 )
                  (    -1         -1          0      )       (  0.0000000 )
                  (     0          0          1      )       ( -0.5000000 )

 cart.    s(15) = (  1.0000000  0.0000000  0.0000000 )    f =(  0.0000000 )
                  (  0.0000000 -1.0000000  0.0000000 )       (  0.0000000 )
                  (  0.0000000  0.0000000  1.0000000 )       ( -1.3628500 )


      isym = 16     inv. 180 deg rotation - cart. axis [1,0,0]   

 cryst.   s(16) = (    -1          0          0      )
                  (     1          1          0      )
                  (     0          0          1      )

 cart.    s(16) = ( -1.0000000  0.0000000  0.0000000 )
                  (  0.0000000  1.0000000  0.0000000 )
                  (  0.0000000  0.0000000  1.0000000 )


      isym = 17     inv.  60 deg rotation - cryst. axis [0,0,1]  

 cryst.   s(17) = (    -1         -1          0      )
                  (     1          0          0      )
                  (     0          0         -1      )

 cart.    s(17) = ( -0.5000000  0.8660254  0.0000000 )
                  ( -0.8660254 -0.5000000  0.0000000 )
                  (  0.0000000  0.0000000 -1.0000000 )


      isym = 18     inv.  60 deg rotation - cryst. axis [0,0,-1] 

 cryst.   s(18) = (     0          1          0      )
                  (    -1         -1          0      )
                  (     0          0         -1      )

 cart.    s(18) = ( -0.5000000 -0.8660254  0.0000000 )
                  (  0.8660254 -0.5000000  0.0000000 )
                  (  0.0000000  0.0000000 -1.0000000 )


      isym = 19     inv. 120 deg rotation - cryst. axis [0,0,1]  

 cryst.   s(19) = (     0         -1          0      )    f =(  0.0000000 )
                  (     1          1          0      )       (  0.0000000 )
                  (     0          0         -1      )       (  0.5000000 )

 cart.    s(19) = (  0.5000000  0.8660254  0.0000000 )    f =(  0.0000000 )
                  ( -0.8660254  0.5000000  0.0000000 )       (  0.0000000 )
                  (  0.0000000  0.0000000 -1.0000000 )       (  1.3628500 )


      isym = 20     inv. 120 deg rotation - cryst. axis [0,0,-1] 

 cryst.   s(20) = (     1          1          0      )    f =(  0.0000000 )
                  (    -1          0          0      )       (  0.0000000 )
                  (     0          0         -1      )       (  0.5000000 )

 cart.    s(20) = (  0.5000000 -0.8660254  0.0000000 )    f =(  0.0000000 )
                  (  0.8660254  0.5000000  0.0000000 )       (  0.0000000 )
                  (  0.0000000  0.0000000 -1.0000000 )       (  1.3628500 )


      isym = 21     inv. 180 deg rotation - cryst. axis [1,-1,0] 

 cryst.   s(21) = (     0          1          0      )    f =(  0.0000000 )
                  (     1          0          0      )       (  0.0000000 )
                  (     0          0          1      )       ( -0.5000000 )

 cart.    s(21) = ( -0.5000000  0.8660254  0.0000000 )    f =(  0.0000000 )
                  (  0.8660254  0.5000000  0.0000000 )       (  0.0000000 )
                  (  0.0000000  0.0000000  1.0000000 )       ( -1.3628500 )


      isym = 22     inv. 180 deg rotation - cryst. axis [2,1,0]  

 cryst.   s(22) = (    -1         -1          0      )    f =(  0.0000000 )
                  (     0          1          0      )       (  0.0000000 )
                  (     0          0          1      )       ( -0.5000000 )

 cart.    s(22) = ( -0.5000000 -0.8660254  0.0000000 )    f =(  0.0000000 )
                  ( -0.8660254  0.5000000  0.0000000 )       (  0.0000000 )
                  (  0.0000000  0.0000000  1.0000000 )       ( -1.3628500 )


      isym = 23     inv. 180 deg rotation - cryst. axis [0,1,0]  

 cryst.   s(23) = (     1          1          0      )
                  (     0         -1          0      )
                  (     0          0          1      )

 cart.    s(23) = (  0.5000000  0.8660254  0.0000000 )
                  (  0.8660254 -0.5000000  0.0000000 )
                  (  0.0000000  0.0000000  1.0000000 )


      isym = 24     inv. 180 deg rotation - cryst. axis [1,1,0]  

 cryst.   s(24) = (     0         -1          0      )
                  (    -1          0          0      )
                  (     0          0          1      )

 cart.    s(24) = (  0.5000000 -0.8660254  0.0000000 )
                  ( -0.8660254 -0.5000000  0.0000000 )
                  (  0.0000000  0.0000000  1.0000000 )


     point group D_6h(6/mmm)
     there are 12 classes
     the character table:

       E     2C6   2C3   C2    3C2'  3C2'' i     2S3   2S6   s_h   3s_d  3s_v 
A_1g   1.00  1.00  1.00  1.00  1.00  1.00  1.00  1.00  1.00  1.00  1.00  1.00
A_2g   1.00  1.00  1.00  1.00 -1.00 -1.00  1.00  1.00  1.00  1.00 -1.00 -1.00
B_1g   1.00 -1.00  1.00 -1.00  1.00 -1.00  1.00 -1.00  1.00 -1.00  1.00 -1.00
B_2g   1.00 -1.00  1.00 -1.00 -1.00  1.00  1.00 -1.00  1.00 -1.00 -1.00  1.00
E_1g   2.00  1.00 -1.00 -2.00  0.00  0.00  2.00  1.00 -1.00 -2.00  0.00  0.00
E_2g   2.00 -1.00 -1.00  2.00  0.00  0.00  2.00 -1.00 -1.00  2.00  0.00  0.00
A_1u   1.00  1.00  1.00  1.00  1.00  1.00 -1.00 -1.00 -1.00 -1.00 -1.00 -1.00
A_2u   1.00  1.00  1.00  1.00 -1.00 -1.00 -1.00 -1.00 -1.00 -1.00  1.00  1.00
B_1u   1.00 -1.00  1.00 -1.00  1.00 -1.00 -1.00  1.00 -1.00  1.00 -1.00  1.00
B_2u   1.00 -1.00  1.00 -1.00 -1.00  1.00 -1.00  1.00 -1.00  1.00  1.00 -1.00
E_1u   2.00  1.00 -1.00 -2.00  0.00  0.00 -2.00 -1.00  1.00  2.00  0.00  0.00
E_2u   2.00 -1.00 -1.00  2.00  0.00  0.00 -2.00  1.00  1.00 -2.00  0.00  0.00

     the symmetry operations in each class and the name of the first element:

     E        1
          identity                                               
     2C6      5    6
           60 deg rotation - cryst. axis [0,0,1]                 
     2C3      7    8
          120 deg rotation - cryst. axis [0,0,1]                 
     C2       2
          180 deg rotation - cart. axis [0,0,1]                  
     3C2'     4   12   11
          180 deg rotation - cart. axis [1,0,0]                  
     3C2''    3    9   10
          180 deg rotation - cart. axis [0,1,0]                  
     i       13
          inversion                                              
     2S3     17   18
          inv.  60 deg rotation - cryst. axis [0,0,1]            
     2S6     19   20
          inv. 120 deg rotation - cryst. axis [0,0,1]            
     s_h     14
          inv. 180 deg rotation - cart. axis [0,0,1]             
     3s_d    16   24   23
          inv. 180 deg rotation - cart. axis [1,0,0]             
     3s_v    15   21   22
          inv. 180 deg rotation - cart. axis [0,1,0]             

   Cartesian axes

     site n.     atom                  positions (alat units)
         1           C   tau(   1) = (   0.0000000   0.0000000   0.0000000  )
         2           C   tau(   2) = (   0.0000000   0.0000000   1.3628500  )
         3           C   tau(   3) = (   0.5000005   0.2886748   0.0000000  )
         4           C   tau(   4) = (  -0.0000005   0.5773506   1.3628500  )

   Crystallographic axes

     site n.     atom                  positions (cryst. coord.)
         1           C   tau(   1) = (  0.0000000  0.0000000  0.0000000  )
         2           C   tau(   2) = (  0.0000000  0.0000000  0.5000000  )
         3           C   tau(   3) = (  0.6666670  0.3333330  0.0000000  )
         4           C   tau(   4) = (  0.3333330  0.6666670  0.5000000  )

     number of k points=    38  Marzari-Vanderbilt smearing, width (Ry)=  0.0050
                       cart. coord. in units 2pi/alat
        k(    1) = (   0.0000000   0.0000000   0.0000000), wk =   0.0046296
        k(    2) = (   0.0000000   0.0000000   0.1222927), wk =   0.0092593
        k(    3) = (   0.0000000   0.0962250   0.0000000), wk =   0.0277778
        k(    4) = (   0.0000000   0.0962250   0.1222927), wk =   0.0555556
        k(    5) = (   0.0000000   0.1924501   0.0000000), wk =   0.0277778
        k(    6) = (   0.0000000   0.1924501   0.1222927), wk =   0.0555556
        k(    7) = (   0.0000000   0.2886751   0.0000000), wk =   0.0277778
        k(    8) = (   0.0000000   0.2886751   0.1222927), wk =   0.0555556
        k(    9) = (   0.0000000   0.3849002   0.0000000), wk =   0.0277778
        k(   10) = (   0.0000000   0.3849002   0.1222927), wk =   0.0555556
        k(   11) = (   0.0000000   0.4811252   0.0000000), wk =   0.0277778
        k(   12) = (   0.0000000   0.4811252   0.1222927), wk =   0.0555556
        k(   13) = (   0.0000000  -0.5773503   0.0000000), wk =   0.0138889
        k(   14) = (   0.0000000  -0.5773503   0.1222927), wk =   0.0277778
        k(   15) = (   0.0833333   0.1443376   0.0000000), wk =   0.0277778
        k(   16) = (   0.0833333   0.1443376   0.1222927), wk =   0.0555556
        k(   17) = (   0.0833333   0.2405626   0.0000000), wk =   0.0555556
        k(   18) = (   0.0833333   0.2405626   0.1222927), wk =   0.1111111
        k(   19) = (   0.0833333   0.3367877   0.0000000), wk =   0.0555556
        k(   20) = (   0.0833333   0.3367877   0.1222927), wk =   0.1111111
        k(   21) = (   0.0833333   0.4330127   0.0000000), wk =   0.0555556
        k(   22) = (   0.0833333   0.4330127   0.1222927), wk =   0.1111111
        k(   23) = (   0.0833333   0.5292377   0.0000000), wk =   0.0555556
        k(   24) = (   0.0833333   0.5292377   0.1222927), wk =   0.1111111
        k(   25) = (   0.1666667   0.2886751   0.0000000), wk =   0.0277778
        k(   26) = (   0.1666667   0.2886751   0.1222927), wk =   0.0555556
        k(   27) = (   0.1666667   0.3849002   0.0000000), wk =   0.0555556
        k(   28) = (   0.1666667   0.3849002   0.1222927), wk =   0.1111111
        k(   29) = (   0.1666667   0.4811252   0.0000000), wk =   0.0555556
        k(   30) = (   0.1666667   0.4811252   0.1222927), wk =   0.1111111
        k(   31) = (   0.1666667   0.5773503   0.0000000), wk =   0.0277778
        k(   32) = (   0.1666667   0.5773503   0.1222927), wk =   0.0555556
        k(   33) = (   0.2500000   0.4330127   0.0000000), wk =   0.0277778
        k(   34) = (   0.2500000   0.4330127   0.1222927), wk =   0.0555556
        k(   35) = (   0.2500000   0.5292377   0.0000000), wk =   0.0555556
        k(   36) = (   0.2500000   0.5292377   0.1222927), wk =   0.1111111
        k(   37) = (   0.3333333   0.5773503   0.0000000), wk =   0.0092593
        k(   38) = (   0.3333333   0.5773503   0.1222927), wk =   0.0185185

                       cryst. coord.
        k(    1) = (   0.0000000   0.0000000   0.0000000), wk =   0.0046296
        k(    2) = (   0.0000000   0.0000000   0.3333333), wk =   0.0092593
        k(    3) = (   0.0000000   0.0833333   0.0000000), wk =   0.0277778
        k(    4) = (   0.0000000   0.0833333   0.3333333), wk =   0.0555556
        k(    5) = (   0.0000000   0.1666667   0.0000000), wk =   0.0277778
        k(    6) = (   0.0000000   0.1666667   0.3333333), wk =   0.0555556
        k(    7) = (   0.0000000   0.2500000   0.0000000), wk =   0.0277778
        k(    8) = (   0.0000000   0.2500000   0.3333333), wk =   0.0555556
        k(    9) = (   0.0000000   0.3333333   0.0000000), wk =   0.0277778
        k(   10) = (   0.0000000   0.3333333   0.3333333), wk =   0.0555556
        k(   11) = (   0.0000000   0.4166667   0.0000000), wk =   0.0277778
        k(   12) = (   0.0000000   0.4166667   0.3333333), wk =   0.0555556
        k(   13) = (   0.0000000  -0.5000000   0.0000000), wk =   0.0138889
        k(   14) = (   0.0000000  -0.5000000   0.3333333), wk =   0.0277778
        k(   15) = (   0.0833333   0.0833333   0.0000000), wk =   0.0277778
        k(   16) = (   0.0833333   0.0833333   0.3333333), wk =   0.0555556
        k(   17) = (   0.0833333   0.1666667   0.0000000), wk =   0.0555556
        k(   18) = (   0.0833333   0.1666667   0.3333333), wk =   0.1111111
        k(   19) = (   0.0833333   0.2500000   0.0000000), wk =   0.0555556
        k(   20) = (   0.0833333   0.2500000   0.3333333), wk =   0.1111111
        k(   21) = (   0.0833333   0.3333333   0.0000000), wk =   0.0555556
        k(   22) = (   0.0833333   0.3333333   0.3333333), wk =   0.1111111
        k(   23) = (   0.0833333   0.4166667   0.0000000), wk =   0.0555556
        k(   24) = (   0.0833333   0.4166667   0.3333333), wk =   0.1111111
        k(   25) = (   0.1666667   0.1666667   0.0000000), wk =   0.0277778
        k(   26) = (   0.1666667   0.1666667   0.3333333), wk =   0.0555556
        k(   27) = (   0.1666667   0.2500000   0.0000000), wk =   0.0555556
        k(   28) = (   0.1666667   0.2500000   0.3333333), wk =   0.1111111
        k(   29) = (   0.1666667   0.3333333   0.0000000), wk =   0.0555556
        k(   30) = (   0.1666667   0.3333333   0.3333333), wk =   0.1111111
        k(   31) = (   0.1666667   0.4166667   0.0000000), wk =   0.0277778
        k(   32) = (   0.1666667   0.4166667   0.3333333), wk =   0.0555556
        k(   33) = (   0.2500000   0.2500000   0.0000000), wk =   0.0277778
        k(   34) = (   0.2500000   0.2500000   0.3333333), wk =   0.0555556
        k(   35) = (   0.2500000   0.3333333   0.0000000), wk =   0.0555556
        k(   36) = (   0.2500000   0.3333333   0.3333333), wk =   0.1111111
        k(   37) = (   0.3333333   0.3333333   0.0000000), wk =   0.0092593
        k(   38) = (   0.3333333   0.3333333   0.3333333), wk =   0.0185185

     Dense  grid:    23155 G-vectors     FFT dimensions: (  27,  27,  80)

     Dynamical RAM for                 wfc:       0.07 MB

     Dynamical RAM for     wfc (w. buffer):       2.58 MB

     Dynamical RAM for           str. fact:       0.04 MB

     Dynamical RAM for           local pot:       0.00 MB

     Dynamical RAM for          nlocal pot:       0.18 MB

     Dynamical RAM for                qrad:       0.82 MB

     Dynamical RAM for          rho,v,vnew:       0.30 MB

     Dynamical RAM for               rhoin:       0.10 MB

     Dynamical RAM for            rho*nmix:       0.71 MB

     Dynamical RAM for           G-vectors:       0.19 MB

     Dynamical RAM for          h,s,v(r/c):       0.03 MB

     Dynamical RAM for          <psi|beta>:       0.01 MB

     Dynamical RAM for                 psi:       0.13 MB

     Dynamical RAM for                hpsi:       0.13 MB

     Dynamical RAM for      wfcinit/wfcrot:       0.18 MB

     Estimated static dynamical RAM per process >       4.57 MB

     Estimated max dynamical RAM per process >       5.57 MB

     Estimated total dynamical RAM >      44.59 MB

     Initial potential from superposition of free atoms

     starting charge      15.9998, renormalised to      16.0000


     %%%%%%%%%%%%%%%%%%%%%%%%%%%%%%%%%%%%%%%%%%%%%%%%%%%%%%%%%%%%%%%%%%%%%%%%
     %                                                                      %
     % You are using vdW-DF, which was implemented by the Thonhauser group. %
     % Please cite the following two papers that made this development      %
     % possible and the two reviews that describe the various versions:     %
     %                                                                      %
     %   T. Thonhauser et al., PRL 115, 136402 (2015).                      %
     %   T. Thonhauser et al., PRB 76, 125112 (2007).                       %
     %   K. Berland et al., Rep. Prog. Phys. 78, 066501 (2015).             %
     %   D.C. Langreth et al., J. Phys.: Condens. Matter 21, 084203 (2009). %
     %                                                                      %
     % If you are calculating stress with vdW-DF, please also cite:         %
     %                                                                      %
     %   R. Sabatini et al., J. Phys.: Condens. Matter 24, 424209 (2012).   %
     %                                                                      %
     %%%%%%%%%%%%%%%%%%%%%%%%%%%%%%%%%%%%%%%%%%%%%%%%%%%%%%%%%%%%%%%%%%%%%%%%

     %%%%%%%%%%%%%%%%%%%%%%%%%%%%%%%%%%%%%%%%%%%%%%%%%%%%%%%%%%%%%%%%%%%%%%%%
     %                                                                      %
     %  vdW-DF NEWS:                                                        %
     %                                                                      %
     %  * vdW-DF3 is now available. DOI: 10.1021/acs.jctc.0c00471           %
     %    use with input_dft = 'vdW-DF3-opt1' or 'vdW-DF3-opt2'             %
     %                                                                      %
     %  * Unscreened and range-separated hybrid vdW-DF-cx functionals       %
     %    DOI: 10.1063/1.4986522 and 10.1088/1361-648X/ac2ad2               %
     %    use with input_dft = 'vdW-DF-cx0'    and 'vdW-DF-ahcx'            %
     %  * Unscreened and range-separated hybrid vdW-DF2-b86r functionals    %
     %    DOI: 10.1063/1.4986522 and DOI: 10.1103/PhysRevX.12.041003        %
     %    use with input_dft = 'vdW-DF2-br0' and 'vdW-DF2-ahbr'             %
     %                                                                      %
     %%%%%%%%%%%%%%%%%%%%%%%%%%%%%%%%%%%%%%%%%%%%%%%%%%%%%%%%%%%%%%%%%%%%%%%%


     Carrying out vdW-DF run using the following parameters:
     Nqs    =  20  Npoints =  1024  r_max =  100.000
     q_mesh =  0.00001000  0.04494208  0.09755937  0.15916263
               0.23128650  0.31572767  0.41458969  0.53033537
               0.66584808  0.82450364  1.01025438  1.22772762
               1.48234092  1.78043706  2.12944203  2.53805004
               3.01644009  3.57652955  4.23227104  5.00000000


     -----------------------------------------------
     Non-local corr. energy    =       0.15217375 Ry
     -----------------------------------------------

     Starting wfcs are   16 randomized atomic wfcs

     total cpu time spent up to now is        9.4 secs

     Self-consistent Calculation

     iteration #  1     ecut=    80.00 Ry     beta= 0.70
     Davidson diagonalization with overlap

---- Real-time Memory Report at c_bands before calling an iterative solver
             0 MiB given to the printing process from OS
             0 MiB allocation reported by mallinfo(arena+hblkhd)
             0 MiB available memory on the node where the printing process lives
------------------
     ethr =  1.00E-02,  avg # of iterations =  3.3


     -----------------------------------------------
     Non-local corr. energy    =       0.17954761 Ry
     -----------------------------------------------


     total cpu time spent up to now is       10.2 secs

     total energy              =     -48.22207303 Ry
     estimated scf accuracy    <       0.34101944 Ry

     iteration #  2     ecut=    80.00 Ry     beta= 0.70
     Davidson diagonalization with overlap

---- Real-time Memory Report at c_bands before calling an iterative solver
             0 MiB given to the printing process from OS
             0 MiB allocation reported by mallinfo(arena+hblkhd)
             0 MiB available memory on the node where the printing process lives
------------------
     ethr =  2.13E-03,  avg # of iterations =  2.9


     -----------------------------------------------
     Non-local corr. energy    =       0.18013875 Ry
     -----------------------------------------------


     total cpu time spent up to now is       10.8 secs

     total energy              =     -48.26428475 Ry
     estimated scf accuracy    <       0.00446123 Ry

     iteration #  3     ecut=    80.00 Ry     beta= 0.70
     Davidson diagonalization with overlap

---- Real-time Memory Report at c_bands before calling an iterative solver
             0 MiB given to the printing process from OS
             0 MiB allocation reported by mallinfo(arena+hblkhd)
             0 MiB available memory on the node where the printing process lives
------------------
     ethr =  2.79E-05,  avg # of iterations =  8.7


     -----------------------------------------------
     Non-local corr. energy    =       0.17962669 Ry
     -----------------------------------------------


     total cpu time spent up to now is       12.0 secs

     total energy              =     -48.26541541 Ry
     estimated scf accuracy    <       0.00037153 Ry

     iteration #  4     ecut=    80.00 Ry     beta= 0.70
     Davidson diagonalization with overlap

---- Real-time Memory Report at c_bands before calling an iterative solver
             0 MiB given to the printing process from OS
             0 MiB allocation reported by mallinfo(arena+hblkhd)
             0 MiB available memory on the node where the printing process lives
------------------
     c_bands:  1 eigenvalues not converged
     ethr =  2.32E-06,  avg # of iterations =  4.6


     -----------------------------------------------
     Non-local corr. energy    =       0.17991946 Ry
     -----------------------------------------------


     total cpu time spent up to now is       12.7 secs

     total energy              =     -48.26545958 Ry
     estimated scf accuracy    <       0.00001749 Ry

     iteration #  5     ecut=    80.00 Ry     beta= 0.70
     Davidson diagonalization with overlap

---- Real-time Memory Report at c_bands before calling an iterative solver
             0 MiB given to the printing process from OS
             0 MiB allocation reported by mallinfo(arena+hblkhd)
             0 MiB available memory on the node where the printing process lives
------------------
     ethr =  1.09E-07,  avg # of iterations =  2.7


     -----------------------------------------------
     Non-local corr. energy    =       0.17989980 Ry
     -----------------------------------------------


     total cpu time spent up to now is       13.4 secs

     End of self-consistent calculation

          k = 0.0000 0.0000 0.0000 (  2929 PWs)   bands (ev):

   -12.7345 -12.4300  -1.6724   0.3431   3.8339   3.8340   3.8522   3.8523
    10.8489  15.2814  15.2815  15.3347

     occupation numbers 
     1.0000   1.0000   1.0000   1.0000   1.0000   1.0000   1.0000   1.0000
     0.0000   0.0000   0.0000   0.0000

          k = 0.0000 0.0000 0.1223 (  2928 PWs)   bands (ev):

   -12.6622 -12.5101  -1.2381  -0.2475   3.8385   3.8385   3.8477   3.8478
    12.1393  15.2942  15.2942  15.3209

     occupation numbers 
     1.0000   1.0000   1.0000   1.0000   1.0000   1.0000   1.0000   1.0000
     0.0000   0.0000   0.0000   0.0000

          k = 0.0000 0.0962 0.0000 (  2931 PWs)   bands (ev):

   -12.5696 -12.2681  -1.4709   0.5313   3.1788   3.2124   3.4924   3.5207
    11.0494  15.3310  15.4153  15.9734

     occupation numbers 
     1.0000   1.0000   1.0000   1.0000   1.0000   1.0000   1.0000   1.0000
     0.0000   0.0000   0.0000   0.0000

          k = 0.0000 0.0962 0.1223 (  2915 PWs)   bands (ev):

   -12.4979 -12.3474  -1.0391  -0.0549   3.1872   3.2040   3.4995   3.5136
    12.3297  15.1571  15.3950  15.4313

     occupation numbers 
     1.0000   1.0000   1.0000   1.0000   1.0000   1.0000   1.0000   1.0000
     0.0000   0.0000   0.0000   0.0000

          k = 0.0000 0.1925 0.0000 (  2913 PWs)   bands (ev):

   -12.0764 -11.7841  -0.8705   1.0893   1.5322   1.5966   2.6970   2.7373
    11.6520  15.2236  15.4060  16.0164

     occupation numbers 
     1.0000   1.0000   1.0000   1.0000   1.0000   1.0000   1.0000   1.0000
     0.0000   0.0000   0.0000   0.0000

          k = 0.0000 0.1925 0.1223 (  2914 PWs)   bands (ev):

   -12.0068 -11.8608  -0.4469   0.5171   1.5482   1.5804   2.7070   2.7272
    12.8977  15.1915  15.3534  15.7770

     occupation numbers 
     1.0000   1.0000   1.0000   1.0000   1.0000   1.0000   1.0000   1.0000
     0.0000   0.0000   0.0000   0.0000

          k = 0.0000 0.2887 0.0000 (  2892 PWs)   bands (ev):

   -11.2608 -10.9837  -0.5773  -0.4776   0.1132   1.8150   1.8631   1.9926
    12.6522  13.7972  14.4464  14.8848

     occupation numbers 
     1.0000   1.0000   1.0000   1.0000   1.0000   1.0000   1.0000   1.0000
     0.0000   0.0000   0.0000   0.0000

          k = 0.0000 0.2887 0.1223 (  2897 PWs)   bands (ev):

   -11.1946 -11.0562  -0.5529  -0.5031   0.5219   1.4476   1.8270   1.8510
    13.6614  14.1096  14.2371  14.9406

     occupation numbers 
     1.0000   1.0000   1.0000   1.0000   1.0000   1.0000   1.0000   1.0000
     0.0000   0.0000   0.0000   0.0000

          k = 0.0000 0.3849 0.0000 (  2878 PWs)   bands (ev):

   -10.1351  -9.8787  -2.7920  -2.6573   1.0800   1.1324   1.4413   3.1732
    11.3606  12.2835  14.0073  14.5278

     occupation numbers 
     1.0000   1.0000   1.0000   1.0000   1.0000   1.0000   1.0000   1.0000
     0.0000   0.0000   0.0000   0.0000

          k = 0.0000 0.3849 0.1223 (  2899 PWs)   bands (ev):

   -10.0737  -9.9456  -2.7591  -2.6918   1.0929   1.1192   1.8234   2.6791
    11.5380  12.0057  14.5680  14.6900

     occupation numbers 
     1.0000   1.0000   1.0000   1.0000   1.0000   1.0000   1.0000   1.0000
     0.0000   0.0000   0.0000   0.0000

          k = 0.0000 0.4811 0.0000 (  2880 PWs)   bands (ev):

    -8.7297  -8.5017  -4.9008  -4.7368   0.6060   0.6606   2.9946   4.3869
     9.2152  10.2329  14.2348  14.6168

     occupation numbers 
     1.0000   1.0000   1.0000   1.0000   1.0000   1.0000   1.0000   1.0000
     0.0000   0.0000   0.0000   0.0000

          k = 0.0000 0.4811 0.1223 (  2887 PWs)   bands (ev):

    -8.6747  -8.5608  -4.8611  -4.7791   0.6195   0.6468   3.3212   4.0172
     9.3826   9.8979  14.3306  14.5222

     occupation numbers 
     1.0000   1.0000   1.0000   1.0000   1.0000   1.0000   1.0000   1.0000
     0.0000   0.0000   0.0000   0.0000

          k = 0.0000-0.5774 0.0000 (  2890 PWs)   bands (ev):

    -7.4232  -7.3102  -6.3528  -6.2672   0.4432   0.4985   4.0978   4.7971
     8.3673   9.0630  14.1444  14.5495

     occupation numbers 
     1.0000   1.0000   1.0000   1.0000   1.0000   1.0000   1.0000   1.0000
     0.0000   0.0000   0.0000   0.0000

          k = 0.0000-0.5774 0.1223 (  2872 PWs)   bands (ev):

    -7.3912  -7.3341  -6.3390  -6.2956   0.4570   0.4846   4.3165   4.6796
     8.3778   8.7385  14.2418  14.4449

     occupation numbers 
     1.0000   1.0000   1.0000   1.0000   1.0000   1.0000   1.0000   1.0000
     0.0000   0.0000   0.0000   0.0000

          k = 0.0833 0.1443 0.0000 (  2917 PWs)   bands (ev):

   -12.2405 -11.9452  -1.0698   0.9046   2.1484   2.1809   2.8217   2.8455
    11.4519  15.6088  15.7243  16.5440

     occupation numbers 
     1.0000   1.0000   1.0000   1.0000   1.0000   1.0000   1.0000   1.0000
     0.0000   0.0000   0.0000   0.0000

          k = 0.0833 0.1443 0.1223 (  2914 PWs)   bands (ev):

   -12.1702 -12.0227  -0.6434   0.3275   2.1569   2.1731   2.8272   2.8391
    12.7113  15.4130  15.6961  15.7938

     occupation numbers 
     1.0000   1.0000   1.0000   1.0000   1.0000   1.0000   1.0000   1.0000
     0.0000   0.0000   0.0000   0.0000

          k = 0.0833 0.2406 0.0000 (  2900 PWs)   bands (ev):

   -11.5861 -11.3030  -0.2770   0.4262   0.4948   1.6370   1.8169   1.8611
    12.2571  14.7285  15.1864  15.6884

     occupation numbers 
     1.0000   1.0000   1.0000   1.0000   1.0000   1.0000   1.0000   1.0000
     0.0000   0.0000   0.0000   0.0000

          k = 0.0833 0.2406 0.1223 (  2897 PWs)   bands (ev):

   -11.5186 -11.3771   0.1375   0.4432   0.4780   1.0805   1.8276   1.8497
    13.4627  14.8324  15.0341  15.6784

     occupation numbers 
     1.0000   1.0000   1.0000   1.0000   1.0000   1.0000   1.0000   1.0000
     0.0000   0.0000   0.0000   0.0000

          k = 0.0833 0.3368 0.0000 (  2891 PWs)   bands (ev):

   -10.6153 -10.3501  -1.6614  -1.5505   0.8834   0.9241   0.9833   2.6890
    12.4658  13.1766  13.4533  15.3830

     occupation numbers 
     1.0000   1.0000   1.0000   1.0000   1.0000   1.0000   1.0000   1.0000
     0.0000   0.0000   0.0000   0.0000

          k = 0.0833 0.3368 0.1223 (  2896 PWs)   bands (ev):

   -10.5519 -10.4194  -1.6342  -1.5787   0.9387   0.9682   1.2785   2.1690
    12.6062  12.9726  14.5986  15.4462

     occupation numbers 
     1.0000   1.0000   1.0000   1.0000   1.0000   1.0000   1.0000   1.0000
     0.0000   0.0000   0.0000   0.0000

          k = 0.0833 0.4330 0.0000 (  2893 PWs)   bands (ev):

    -9.3470  -9.1056  -3.7959  -3.6491   0.2860   0.3520   2.3474   3.9421
    10.1664  11.1019  14.9288  15.1230

     occupation numbers 
     1.0000   1.0000   1.0000   1.0000   1.0000   1.0000   1.0000   1.0000
     0.0000   0.0000   0.0000   0.0000

          k = 0.0833 0.4330 0.1223 (  2881 PWs)   bands (ev):

    -9.2889  -9.1683  -3.7601  -3.6867   0.3023   0.3353   2.7057   3.4964
    10.3499  10.8227  15.1368  15.3030

     occupation numbers 
     1.0000   1.0000   1.0000   1.0000   1.0000   1.0000   1.0000   1.0000
     0.0000   0.0000   0.0000   0.0000

          k = 0.0833 0.5292 0.0000 (  2891 PWs)   bands (ev):

    -7.8529  -7.6535  -5.7374  -5.5754  -0.0439   0.0249   3.8674   4.8922
     8.5424   9.3415  14.8665  15.2900

     occupation numbers 
     1.0000   1.0000   1.0000   1.0000   1.0000   1.0000   1.0000   1.0000
     0.0000   0.0000   0.0000   0.0000

          k = 0.0833 0.5292 0.1223 (  2887 PWs)   bands (ev):

    -7.8042  -7.7045  -5.6990  -5.6180  -0.0269   0.0074   4.1378   4.6602
     8.6218   9.0354  14.9666  15.1784

     occupation numbers 
     1.0000   1.0000   1.0000   1.0000   1.0000   1.0000   1.0000   1.0000
     0.0000   0.0000   0.0000   0.0000

          k = 0.1667 0.2887 0.0000 (  2875 PWs)   bands (ev):

   -10.7765 -10.5083  -0.8969  -0.8420   0.4652   0.5052   0.6954   2.5241
    12.9996  13.2619  13.4903  16.8516

     occupation numbers 
     1.0000   1.0000   1.0000   1.0000   1.0000   1.0000   1.0000   1.0000
     0.0000   0.0000   0.0000   0.0000

          k = 0.1667 0.2887 0.1223 (  2893 PWs)   bands (ev):

   -10.7123 -10.5784  -0.8828  -0.8553   0.4740   0.4940   1.0944   1.9960
    13.1187  13.3594  14.4039  16.6701

     occupation numbers 
     1.0000   1.0000   1.0000   1.0000   1.0000   1.0000   1.0000   1.0000
     0.0000   0.0000   0.0000   0.0000

          k = 0.1667 0.3849 0.0000 (  2899 PWs)   bands (ev):

    -9.6617  -9.4142  -2.6432  -2.5386  -0.6056  -0.5335   2.0092   3.6902
    10.9855  11.6268  14.6441  16.9470

     occupation numbers 
     1.0000   1.0000   1.0000   1.0000   1.0000   1.0000   1.0000   1.0000
     0.0000   0.0000   0.0000   0.0000

          k = 0.1667 0.3849 0.1223 (  2897 PWs)   bands (ev):

    -9.6023  -9.4786  -2.6172  -2.5649  -0.5884  -0.5524   2.3813   3.2124
    11.1371  11.4589  15.6305  16.9769

     occupation numbers 
     1.0000   1.0000   1.0000   1.0000   1.0000   1.0000   1.0000   1.0000
     0.0000   0.0000   0.0000   0.0000

          k = 0.1667 0.4811 0.0000 (  2897 PWs)   bands (ev):

    -8.2763  -8.0573  -4.5682  -4.4200  -1.1916  -1.1007   3.5572   4.9276
     9.0462   9.8108  16.3414  16.7082

     occupation numbers 
     1.0000   1.0000   1.0000   1.0000   1.0000   1.0000   1.0000   1.0000
     0.0000   0.0000   0.0000   0.0000

          k = 0.1667 0.4811 0.1223 (  2896 PWs)   bands (ev):

    -8.2234  -8.1139  -4.5321  -4.4581  -1.1695  -1.1240   3.8774   4.5619
     9.1956   9.5849  16.7709  16.8516

     occupation numbers 
     1.0000   1.0000   1.0000   1.0000   1.0000   1.0000   1.0000   1.0000
     0.0000   0.0000   0.0000   0.0000

          k = 0.1667 0.5774 0.0000 (  2900 PWs)   bands (ev):

    -7.0005  -6.8921  -5.9518  -5.8765  -1.3789  -1.2835   4.6967   5.3814
     8.2995   8.6156  16.5832  17.1481

     occupation numbers 
     1.0000   1.0000   1.0000   1.0000   1.0000   1.0000   1.0000   1.0000
     0.0000   0.0000   0.0000   0.0000

          k = 0.1667 0.5774 0.1223 (  2889 PWs)   bands (ev):

    -6.9699  -6.9152  -5.9399  -5.9017  -1.3556  -1.3079   4.9153   5.2727
     8.2504   8.4304  16.6799  16.9471

     occupation numbers 
     1.0000   1.0000   1.0000   1.0000   1.0000   1.0000   1.0000   1.0000
     0.0000   0.0000   0.0000   0.0000

          k = 0.2500 0.4330 0.0000 (  2885 PWs)   bands (ev):

    -8.4255  -8.2022  -3.6661  -3.5895  -2.0716  -2.0148   3.4355   4.9143
     9.3811   9.9973  16.1689  18.6019

     occupation numbers 
     1.0000   1.0000   1.0000   1.0000   1.0000   1.0000   1.0000   1.0000
     0.0000   0.0000   0.0000   0.0000

          k = 0.2500 0.4330 0.1223 (  2906 PWs)   bands (ev):

    -8.3716  -8.2600  -3.6462  -3.6078  -2.0599  -2.0314   3.7708   4.5051
     9.5356   9.8412  16.7205  17.6695

     occupation numbers 
     1.0000   1.0000   1.0000   1.0000   1.0000   1.0000   1.0000   1.0000
     0.0000   0.0000   0.0000   0.0000

          k = 0.2500 0.5292 0.0000 (  2892 PWs)   bands (ev):

    -6.9890  -6.8070  -5.1022  -4.9797  -2.7986  -2.7030   4.9833   6.0144
     7.9442   8.4987  17.8861  18.5596

     occupation numbers 
     1.0000   1.0000   1.0000   1.0000   1.0000   1.0000   1.0000   1.0000
     0.0000   0.0000   0.0000   0.0000

          k = 0.2500 0.5292 0.1223 (  2890 PWs)   bands (ev):

    -6.9444  -6.8534  -5.0725  -5.0112  -2.7764  -2.7286   5.2508   5.7765
     8.0405   8.3190  17.2283  17.4246

     occupation numbers 
     1.0000   1.0000   1.0000   1.0000   1.0000   1.0000   1.0000   1.0000
     0.0000   0.0000   0.0000   0.0000

          k = 0.3333 0.5774 0.0000 (  2904 PWs)   bands (ev):

    -5.7842  -5.6855  -5.6855  -5.5928  -3.6361  -3.6361   6.2246   6.8501
     6.8501   7.6038  17.8749  18.9020

     occupation numbers 
     1.0000   1.0000   1.0000   1.0000   1.0000   1.0000   1.0000   0.6901
     0.6901   0.0000   0.0000   0.0000

          k = 0.3333 0.5774 0.1223 (  2874 PWs)   bands (ev):

    -5.7378  -5.6838  -5.6838  -5.6422  -3.6398  -3.6398   6.5348   6.8764
     6.8764   7.2189  17.0396  17.0396

     occupation numbers 
     1.0000   1.0000   1.0000   1.0000   1.0000   1.0000   1.0000   0.4050
     0.4049   0.0000   0.0000   0.0000

     the Fermi energy is     6.8769 ev

!    total energy              =     -48.26546449 Ry
     estimated scf accuracy    <       0.00000033 Ry
     smearing contrib. (-TS)   =      -0.00004219 Ry
     internal energy E=F+TS    =     -48.26542231 Ry

     The total energy is F=E-TS. E is the sum of the following terms:
     one-electron contribution =     -10.71945930 Ry
     hartree contribution      =      13.43300367 Ry
     xc contribution           =     -17.22759686 Ry
     ewald contribution        =     -33.75136981 Ry

     convergence has been achieved in   5 iterations


     -----------------------------------------------
     Non-local corr. energy    =       0.17989980 Ry
     -----------------------------------------------


     Forces acting on atoms (cartesian axes, Ry/au):

     atom    1 type  1   force =     0.00000000    0.00000000    0.00000000
     atom    2 type  1   force =     0.00000000    0.00000000    0.00000000
     atom    3 type  1   force =    -0.00000000   -0.00000000    0.00000000
     atom    4 type  1   force =     0.00000000    0.00000000    0.00000000
     The non-local contrib.  to forces
     atom    1 type  1   force =     0.00000000   -0.00000000    0.00000000
     atom    2 type  1   force =     0.00000000    0.00000000    0.00000000
     atom    3 type  1   force =    -0.00000000   -0.00000000    0.00000000
     atom    4 type  1   force =    -0.00000000    0.00000000    0.00000000
     The ionic contribution  to forces
     atom    1 type  1   force =     0.00000851   -0.00000491   -0.00000000
     atom    2 type  1   force =    -0.00000851    0.00000491    0.00000000
     atom    3 type  1   force =    -0.00000853    0.00000492   -0.00000000
     atom    4 type  1   force =     0.00000853   -0.00000492    0.00000000
     The local contribution  to forces
     atom    1 type  1   force =    -0.00000000    0.00000000    0.00000000
     atom    2 type  1   force =     0.00000000   -0.00000000    0.00000000
     atom    3 type  1   force =    -0.00000679    0.00000392    0.00000000
     atom    4 type  1   force =     0.00000679   -0.00000392    0.00000000
     The core correction contribution to forces
     atom    1 type  1   force =    -0.00000000    0.00000000    0.00000000
     atom    2 type  1   force =     0.00000000   -0.00000000    0.00000000
     atom    3 type  1   force =     0.00000053   -0.00000031   -0.00000000
     atom    4 type  1   force =    -0.00000053    0.00000031    0.00000000
     The Hubbard contrib.    to forces
     atom    1 type  1   force =     0.00000000    0.00000000    0.00000000
     atom    2 type  1   force =     0.00000000    0.00000000    0.00000000
     atom    3 type  1   force =     0.00000000    0.00000000    0.00000000
     atom    4 type  1   force =     0.00000000    0.00000000    0.00000000
     The SCF correction term to forces
     atom    1 type  1   force =     0.00000000   -0.00000000    0.00000000
     atom    2 type  1   force =    -0.00000000    0.00000000    0.00000000
     atom    3 type  1   force =    -0.00000000    0.00000000    0.00000000
     atom    4 type  1   force =     0.00000000   -0.00000000    0.00000000

     Total force =     0.000000     Total SCF correction =     0.000000


     Computing stress (Cartesian axis) and pressure



     -----------------------------------------------
     Non-local corr. energy    =       0.17989980 Ry
     -----------------------------------------------

          total   stress  (Ry/bohr**3)                   (kbar)     P=       -2.10
   0.00000858   0.00000000   0.00000000            1.26        0.00        0.00
   0.00000000   0.00000858   0.00000000            0.00        1.26        0.00
   0.00000000   0.00000000  -0.00006008            0.00        0.00       -8.84

     kinetic stress (kbar)  13284.64      0.00      0.00
                                0.00  13284.64      0.00
                                0.00      0.00  14621.65

     local   stress (kbar) -19630.24      0.01      0.00
                                0.01 -19630.22      0.00
                                0.00      0.00  23600.39

     nonloc. stress (kbar)  -1351.50     -0.00     -0.00
                               -0.00  -1351.50      0.00
                                0.00      0.00  -1128.47

     hartree stress (kbar)   7231.86      0.00     -0.00
                                0.00   7231.86     -0.00
                               -0.00     -0.00  -6215.03

     exc-cor stress (kbar)  -1056.99     -0.00      0.00
                               -0.00  -1056.99     -0.00
                                0.00     -0.00  -1226.53

     corecor stress (kbar)  -2014.83      0.00      0.00
                                0.00  -2014.83      0.00
                                0.00      0.00  -1959.48

     ewald   stress (kbar)   3528.29     -0.02     -0.00
                               -0.02   3528.26     -0.00
                               -0.00     -0.00 -27781.97

     hubbard stress (kbar)      0.00      0.00      0.00
                                0.00      0.00      0.00
                                0.00      0.00      0.00

     DFT-D   stress (kbar)      0.00      0.00      0.00
                                0.00      0.00      0.00
                                0.00      0.00      0.00

     XDM     stress (kbar)      0.00      0.00      0.00
                                0.00      0.00      0.00
                                0.00      0.00      0.00

     dft-nl  stress (kbar)     10.03      0.00      0.00
                                0.00     10.03      0.00
                                0.00      0.00     80.61

     TS-vdW  stress (kbar)      0.00      0.00      0.00
                                0.00      0.00      0.00
                                0.00      0.00      0.00

     MDB     stress (kbar)      0.00      0.00      0.00
                                0.00      0.00      0.00
                                0.00      0.00      0.00

     3D-RISM stress (kbar)      0.00      0.00      0.00
                                0.00      0.00      0.00
                                0.00      0.00      0.00


     BFGS Geometry Optimization
     Energy error            =      0.0E+00 Ry
     Gradient error          =      0.0E+00 Ry/Bohr
     Cell gradient error     =      8.8E+00 kbar

     number of scf cycles    =   1
     number of bfgs steps    =   0

     enthalpy           new  =     -48.2654644945 Ry

     new trust radius        =       0.0046495328 bohr
     new conv_thr            =       0.0000010000 Ry

     new unit-cell volume =    239.30351 a.u.^3 (    35.46112 Ang^3 )
     density =      2.24976 g/cm^3

CELL_PARAMETERS (alat=  4.66447000)
   1.000214470   0.000000000   0.000000000
  -0.500107235   0.866211140   0.000000000
   0.000000000   0.000000000   2.721605984

ATOMIC_POSITIONS (crystal)
C             0.0000000000        0.0000000000        0.0000000000    0   0   0
C             0.0000000000        0.0000000000        0.5000000000    0   0   1
C             0.6666670000        0.3333330000        0.0000000000    0   0   0
C             0.3333330000        0.6666670000        0.5000000000    0   0   1



     Writing config-only to output data dir ./tmp/CBULK_AB_PBE_vdW.save/
     NEW-OLD atomic charge density approx. for the potential


     -----------------------------------------------
     Non-local corr. energy    =       0.17966896 Ry
     -----------------------------------------------

     extrapolated charge   15.98280, renormalised to   16.00000

     total cpu time spent up to now is       14.3 secs

     Self-consistent Calculation

     iteration #  1     ecut=    80.00 Ry     beta= 0.70
     Davidson diagonalization with overlap

---- Real-time Memory Report at c_bands before calling an iterative solver
             0 MiB given to the printing process from OS
             0 MiB allocation reported by mallinfo(arena+hblkhd)
             0 MiB available memory on the node where the printing process lives
------------------
     ethr =  1.00E-06,  avg # of iterations =  2.0

     Threshold (ethr) on eigenvalues was too large:
     Diagonalizing with lowered threshold

     Davidson diagonalization with overlap

---- Real-time Memory Report at c_bands before calling an iterative solver
             0 MiB given to the printing process from OS
             0 MiB allocation reported by mallinfo(arena+hblkhd)
             0 MiB available memory on the node where the printing process lives
------------------
     ethr =  3.10E-08,  avg # of iterations =  1.0


     -----------------------------------------------
     Non-local corr. energy    =       0.17992349 Ry
     -----------------------------------------------


     total cpu time spent up to now is       15.4 secs

     total energy              =     -48.26547124 Ry
     estimated scf accuracy    <       0.00000484 Ry

     iteration #  2     ecut=    80.00 Ry     beta= 0.70
     Davidson diagonalization with overlap

---- Real-time Memory Report at c_bands before calling an iterative solver
             0 MiB given to the printing process from OS
             0 MiB allocation reported by mallinfo(arena+hblkhd)
             0 MiB available memory on the node where the printing process lives
------------------
     ethr =  3.02E-08,  avg # of iterations =  3.3


     -----------------------------------------------
     Non-local corr. energy    =       0.17985659 Ry
     -----------------------------------------------


     total cpu time spent up to now is       16.2 secs

     total energy              =     -48.26548403 Ry
     estimated scf accuracy    <       0.00000739 Ry

     iteration #  3     ecut=    80.00 Ry     beta= 0.70
     Davidson diagonalization with overlap

---- Real-time Memory Report at c_bands before calling an iterative solver
             0 MiB given to the printing process from OS
             0 MiB allocation reported by mallinfo(arena+hblkhd)
             0 MiB available memory on the node where the printing process lives
------------------
     ethr =  3.02E-08,  avg # of iterations =  1.0


     -----------------------------------------------
     Non-local corr. energy    =       0.17976097 Ry
     -----------------------------------------------


     total cpu time spent up to now is       16.6 secs

     total energy              =     -48.26548266 Ry
     estimated scf accuracy    <       0.00000226 Ry

     iteration #  4     ecut=    80.00 Ry     beta= 0.70
     Davidson diagonalization with overlap

---- Real-time Memory Report at c_bands before calling an iterative solver
             0 MiB given to the printing process from OS
             0 MiB allocation reported by mallinfo(arena+hblkhd)
             0 MiB available memory on the node where the printing process lives
------------------
     ethr =  1.41E-08,  avg # of iterations =  2.0


     -----------------------------------------------
     Non-local corr. energy    =       0.17978986 Ry
     -----------------------------------------------


     total cpu time spent up to now is       17.4 secs

     End of self-consistent calculation

          k = 0.0000 0.0000 0.0000 (  2929 PWs)   bands (ev):

   -12.7220 -12.4140  -1.6636   0.3663   3.8416   3.8417   3.8603   3.8603
    10.8787  15.2853  15.2854  15.3394

     occupation numbers 
     1.0000   1.0000   1.0000   1.0000   1.0000   1.0000   1.0000   1.0000
     0.0000   0.0000   0.0000   0.0000

          k = 0.0000 0.0000 0.1225 (  2928 PWs)   bands (ev):

   -12.6489 -12.4951  -1.2264  -0.2288   3.8463   3.8463   3.8556   3.8557
    12.1750  15.2982  15.2983  15.3253

     occupation numbers 
     1.0000   1.0000   1.0000   1.0000   1.0000   1.0000   1.0000   1.0000
     0.0000   0.0000   0.0000   0.0000

          k =-0.0000 0.0962 0.0000 (  2931 PWs)   bands (ev):

   -12.5571 -12.2522  -1.4622   0.5543   3.1866   3.2208   3.5003   3.5291
    11.0789  15.3347  15.4200  15.9766

     occupation numbers 
     1.0000   1.0000   1.0000   1.0000   1.0000   1.0000   1.0000   1.0000
     0.0000   0.0000   0.0000   0.0000

          k =-0.0000 0.0962 0.1225 (  2915 PWs)   bands (ev):

   -12.4846 -12.3324  -1.0275  -0.0363   3.1952   3.2122   3.5075   3.5218
    12.3650  15.1894  15.3996  15.4483

     occupation numbers 
     1.0000   1.0000   1.0000   1.0000   1.0000   1.0000   1.0000   1.0000
     0.0000   0.0000   0.0000   0.0000

          k =-0.0000 0.1924 0.0000 (  2913 PWs)   bands (ev):

   -12.0640 -11.7685  -0.8621   1.1118   1.5404   1.6057   2.7053   2.7463
    11.6809  15.2265  15.4108  16.0181

     occupation numbers 
     1.0000   1.0000   1.0000   1.0000   1.0000   1.0000   1.0000   1.0000
     0.0000   0.0000   0.0000   0.0000

          k =-0.0000 0.1924 0.1225 (  2914 PWs)   bands (ev):

   -11.9937 -11.8461  -0.4357   0.5352   1.5567   1.5893   2.7155   2.7360
    12.9319  15.1990  15.3577  15.8126

     occupation numbers 
     1.0000   1.0000   1.0000   1.0000   1.0000   1.0000   1.0000   1.0000
     0.0000   0.0000   0.0000   0.0000

          k =-0.0000 0.2886 0.0000 (  2892 PWs)   bands (ev):

   -11.2488 -10.9684  -0.5684  -0.4673   0.1212   1.8239   1.8727   2.0142
    12.6797  13.8000  14.4547  14.8868

     occupation numbers 
     1.0000   1.0000   1.0000   1.0000   1.0000   1.0000   1.0000   1.0000
     0.0000   0.0000   0.0000   0.0000

          k =-0.0000 0.2886 0.1225 (  2897 PWs)   bands (ev):

   -11.1818 -11.0418  -0.5437  -0.4932   0.5327   1.4650   1.8361   1.8604
    13.6817  14.1247  14.2437  14.9442

     occupation numbers 
     1.0000   1.0000   1.0000   1.0000   1.0000   1.0000   1.0000   1.0000
     0.0000   0.0000   0.0000   0.0000

          k =-0.0000 0.3848 0.0000 (  2878 PWs)   bands (ev):

   -10.1235  -9.8641  -2.7824  -2.6460   1.0894   1.1425   1.4488   3.1933
    11.3649  12.2946  14.0312  14.5302

     occupation numbers 
     1.0000   1.0000   1.0000   1.0000   1.0000   1.0000   1.0000   1.0000
     0.0000   0.0000   0.0000   0.0000

          k =-0.0000 0.3848 0.1225 (  2899 PWs)   bands (ev):

   -10.0613  -9.9317  -2.7491  -2.6809   1.1025   1.1291   1.8335   2.6954
    11.5437  12.0147  14.5714  14.6966

     occupation numbers 
     1.0000   1.0000   1.0000   1.0000   1.0000   1.0000   1.0000   1.0000
     0.0000   0.0000   0.0000   0.0000

          k =-0.0000 0.4810 0.0000 (  2880 PWs)   bands (ev):

    -8.7187  -8.4879  -4.8903  -4.7242   0.6156   0.6710   3.0017   4.4041
     9.2220  10.2463  14.2358  14.6220

     occupation numbers 
     1.0000   1.0000   1.0000   1.0000   1.0000   1.0000   1.0000   1.0000
     0.0000   0.0000   0.0000   0.0000

          k =-0.0000 0.4810 0.1225 (  2887 PWs)   bands (ev):

    -8.6630  -8.5477  -4.8501  -4.7671   0.6293   0.6570   3.3307   4.0318
     9.3901   9.9088  14.3326  14.5262

     occupation numbers 
     1.0000   1.0000   1.0000   1.0000   1.0000   1.0000   1.0000   1.0000
     0.0000   0.0000   0.0000   0.0000

          k = 0.0000-0.5772 0.0000 (  2890 PWs)   bands (ev):

    -7.4129  -7.2986  -6.3402  -6.2536   0.4529   0.5090   4.1053   4.8097
     8.3786   9.0766  14.1452  14.5545

     occupation numbers 
     1.0000   1.0000   1.0000   1.0000   1.0000   1.0000   1.0000   1.0000
     0.0000   0.0000   0.0000   0.0000

          k = 0.0000-0.5772 0.1225 (  2872 PWs)   bands (ev):

    -7.3805  -7.3228  -6.3263  -6.2824   0.4669   0.4949   4.3260   4.6920
     8.3876   8.7497  14.2437  14.4489

     occupation numbers 
     1.0000   1.0000   1.0000   1.0000   1.0000   1.0000   1.0000   1.0000
     0.0000   0.0000   0.0000   0.0000

          k = 0.0833 0.1443 0.0000 (  2917 PWs)   bands (ev):

   -12.2281 -11.9294  -1.0614   0.9273   2.1566   2.1895   2.8302   2.8543
    11.4810  15.6125  15.7289  16.5453

     occupation numbers 
     1.0000   1.0000   1.0000   1.0000   1.0000   1.0000   1.0000   1.0000
     0.0000   0.0000   0.0000   0.0000

          k = 0.0833 0.1443 0.1225 (  2914 PWs)   bands (ev):

   -12.1570 -12.0079  -0.6321   0.3458   2.1652   2.1816   2.8357   2.8478
    12.7460  15.4389  15.7004  15.8167

     occupation numbers 
     1.0000   1.0000   1.0000   1.0000   1.0000   1.0000   1.0000   1.0000
     0.0000   0.0000   0.0000   0.0000

          k = 0.0833 0.2405 0.0000 (  2900 PWs)   bands (ev):

   -11.5739 -11.2875  -0.2688   0.4347   0.5043   1.6590   1.8259   1.8707
    12.2852  14.7309  15.1930  15.6908

     occupation numbers 
     1.0000   1.0000   1.0000   1.0000   1.0000   1.0000   1.0000   1.0000
     0.0000   0.0000   0.0000   0.0000

          k = 0.0833 0.2405 0.1225 (  2897 PWs)   bands (ev):

   -11.5057 -11.3626   0.1484   0.4520   0.4873   1.0982   1.8367   1.8592
    13.4956  14.8355  15.0396  15.6865

     occupation numbers 
     1.0000   1.0000   1.0000   1.0000   1.0000   1.0000   1.0000   1.0000
     0.0000   0.0000   0.0000   0.0000

          k = 0.0833 0.3367 0.0000 (  2891 PWs)   bands (ev):

   -10.6035 -10.3352  -1.6522  -1.5399   0.8911   0.9334   0.9935   2.7098
    12.4694  13.1858  13.4800  15.3846

     occupation numbers 
     1.0000   1.0000   1.0000   1.0000   1.0000   1.0000   1.0000   1.0000
     0.0000   0.0000   0.0000   0.0000

          k = 0.0833 0.3367 0.1225 (  2896 PWs)   bands (ev):

   -10.5393 -10.4053  -1.6246  -1.5685   0.9482   0.9782   1.2889   2.1858
    12.6112  12.9802  14.6282  15.4492

     occupation numbers 
     1.0000   1.0000   1.0000   1.0000   1.0000   1.0000   1.0000   1.0000
     0.0000   0.0000   0.0000   0.0000

          k = 0.0833 0.4329 0.0000 (  2893 PWs)   bands (ev):

    -9.3356  -9.0914  -3.7859  -3.6373   0.2956   0.3626   2.3546   3.9609
    10.1716  11.1138  14.9431  15.1321

     occupation numbers 
     1.0000   1.0000   1.0000   1.0000   1.0000   1.0000   1.0000   1.0000
     0.0000   0.0000   0.0000   0.0000

          k = 0.0833 0.4329 0.1225 (  2881 PWs)   bands (ev):

    -9.2769  -9.1549  -3.7497  -3.6754   0.3122   0.3457   2.7154   3.5119
    10.3563  10.8325  15.1389  15.3079

     occupation numbers 
     1.0000   1.0000   1.0000   1.0000   1.0000   1.0000   1.0000   1.0000
     0.0000   0.0000   0.0000   0.0000

          k = 0.0833 0.5291 0.0000 (  2891 PWs)   bands (ev):

    -7.8423  -7.6406  -5.7263  -5.5624  -0.0341   0.0357   3.8746   4.9066
     8.5517   9.3548  14.8672  15.2947

     occupation numbers 
     1.0000   1.0000   1.0000   1.0000   1.0000   1.0000   1.0000   1.0000
     0.0000   0.0000   0.0000   0.0000

          k = 0.0833 0.5291 0.1225 (  2887 PWs)   bands (ev):

    -7.7930  -7.6922  -5.6875  -5.6055  -0.0169   0.0180   4.1471   4.6734
     8.6305   9.0465  14.9682  15.1821

     occupation numbers 
     1.0000   1.0000   1.0000   1.0000   1.0000   1.0000   1.0000   1.0000
     0.0000   0.0000   0.0000   0.0000

          k = 0.1666 0.2886 0.0000 (  2875 PWs)   bands (ev):

   -10.7646 -10.4933  -0.8880  -0.8323   0.4752   0.5157   0.7031   2.5451
    13.0030  13.2889  13.4981  16.8544

     occupation numbers 
     1.0000   1.0000   1.0000   1.0000   1.0000   1.0000   1.0000   1.0000
     0.0000   0.0000   0.0000   0.0000

          k = 0.1666 0.2886 0.1225 (  2893 PWs)   bands (ev):

   -10.6997 -10.5642  -0.8736  -0.8458   0.4841   0.5044   1.1049   2.0129
    13.1231  13.3660  14.4356  16.6894

     occupation numbers 
     1.0000   1.0000   1.0000   1.0000   1.0000   1.0000   1.0000   1.0000
     0.0000   0.0000   0.0000   0.0000

          k = 0.1666 0.3848 0.0000 (  2899 PWs)   bands (ev):

    -9.6503  -9.3998  -2.6338  -2.5278  -0.5953  -0.5222   2.0164   3.7098
    10.9900  11.6366  14.6694  16.9479

     occupation numbers 
     1.0000   1.0000   1.0000   1.0000   1.0000   1.0000   1.0000   1.0000
     0.0000   0.0000   0.0000   0.0000

          k = 0.1666 0.3848 0.1225 (  2897 PWs)   bands (ev):

    -9.5901  -9.4650  -2.6075  -2.5545  -0.5779  -0.5414   2.3911   3.2283
    11.1428  11.4673  15.6586  16.9811

     occupation numbers 
     1.0000   1.0000   1.0000   1.0000   1.0000   1.0000   1.0000   1.0000
     0.0000   0.0000   0.0000   0.0000

          k = 0.1666 0.4810 0.0000 (  2897 PWs)   bands (ev):

    -8.2654  -8.0438  -4.5579  -4.4079  -1.1813  -1.0891   3.5641   4.9444
     9.0527   9.8226  16.3625  16.7099

     occupation numbers 
     1.0000   1.0000   1.0000   1.0000   1.0000   1.0000   1.0000   1.0000
     0.0000   0.0000   0.0000   0.0000

          k = 0.1666 0.4810 0.1225 (  2896 PWs)   bands (ev):

    -8.2119  -8.1011  -4.5215  -4.4465  -1.1589  -1.1128   3.8866   4.5761
     9.2030   9.5950  16.7727  16.8634

     occupation numbers 
     1.0000   1.0000   1.0000   1.0000   1.0000   1.0000   1.0000   1.0000
     0.0000   0.0000   0.0000   0.0000

          k = 0.1666 0.5772 0.0000 (  2900 PWs)   bands (ev):

    -6.9903  -6.8806  -5.9396  -5.8635  -1.3686  -1.2718   4.7039   5.3934
     8.3113   8.6270  16.5833  17.1522

     occupation numbers 
     1.0000   1.0000   1.0000   1.0000   1.0000   1.0000   1.0000   1.0000
     0.0000   0.0000   0.0000   0.0000

          k = 0.1666 0.5772 0.1225 (  2889 PWs)   bands (ev):

    -6.9593  -6.9040  -5.9276  -5.8890  -1.3450  -1.2966   4.9246   5.2847
     8.2603   8.4405  16.6809  16.9501

     occupation numbers 
     1.0000   1.0000   1.0000   1.0000   1.0000   1.0000   1.0000   1.0000
     0.0000   0.0000   0.0000   0.0000

          k = 0.2499 0.4329 0.0000 (  2885 PWs)   bands (ev):

    -8.4145  -8.1885  -3.6566  -3.5789  -2.0600  -2.0025   3.4423   4.9320
     9.3865  10.0081  16.1919  18.6263

     occupation numbers 
     1.0000   1.0000   1.0000   1.0000   1.0000   1.0000   1.0000   1.0000
     0.0000   0.0000   0.0000   0.0000

          k = 0.2499 0.4329 0.1225 (  2906 PWs)   bands (ev):

    -8.3600  -8.2471  -3.6363  -3.5975  -2.0482  -2.0193   3.7800   4.5197
     9.5424   9.8506  16.7421  17.6864

     occupation numbers 
     1.0000   1.0000   1.0000   1.0000   1.0000   1.0000   1.0000   1.0000
     0.0000   0.0000   0.0000   0.0000

          k = 0.2499 0.5291 0.0000 (  2892 PWs)   bands (ev):

    -6.9787  -6.7944  -5.0919  -4.9680  -2.7870  -2.6903   4.9898   6.0281
     7.9519   8.5111  17.9044  18.5613

     occupation numbers 
     1.0000   1.0000   1.0000   1.0000   1.0000   1.0000   1.0000   1.0000
     0.0000   0.0000   0.0000   0.0000

          k = 0.2499 0.5291 0.1225 (  2890 PWs)   bands (ev):

    -6.9336  -6.8414  -5.0618  -4.9998  -2.7646  -2.7162   5.2595   5.7891
     8.0487   8.3295  17.2406  17.4370

     occupation numbers 
     1.0000   1.0000   1.0000   1.0000   1.0000   1.0000   1.0000   1.0000
     0.0000   0.0000   0.0000   0.0000

          k = 0.3333 0.5772 0.0000 (  2904 PWs)   bands (ev):

    -5.7746  -5.6750  -5.6750  -5.5808  -3.6226  -3.6226   6.2296   6.8590
     6.8590   7.6206  17.8932  17.8933

     occupation numbers 
     1.0000   1.0000   1.0000   1.0000   1.0000   1.0000   1.0000   0.6932
     0.6931   0.0000   0.0000   0.0000

          k = 0.3333 0.5772 0.1225 (  2874 PWs)   bands (ev):

    -5.7276  -5.6733  -5.6733  -5.6308  -3.6264  -3.6264   6.5423   6.8858
     6.8858   7.2322  17.0515  17.0515

     occupation numbers 
     1.0000   1.0000   1.0000   1.0000   1.0000   1.0000   1.0000   0.4034
     0.4034   0.0000   0.0000   0.0000

     the Fermi energy is     6.8860 ev

!    total energy              =     -48.26548320 Ry
     estimated scf accuracy    <       0.00000015 Ry
     smearing contrib. (-TS)   =      -0.00004208 Ry
     internal energy E=F+TS    =     -48.26544112 Ry

     The total energy is F=E-TS. E is the sum of the following terms:
     one-electron contribution =     -10.59830712 Ry
     hartree contribution      =      13.38101554 Ry
     xc contribution           =     -17.22639139 Ry
     ewald contribution        =     -33.82175814 Ry

     convergence has been achieved in   4 iterations


     -----------------------------------------------
     Non-local corr. energy    =       0.17978986 Ry
     -----------------------------------------------


     Forces acting on atoms (cartesian axes, Ry/au):

     atom    1 type  1   force =    -0.00000000    0.00000000    0.00000000
     atom    2 type  1   force =     0.00000000   -0.00000000    0.00000000
     atom    3 type  1   force =     0.00000000    0.00000000    0.00000000
     atom    4 type  1   force =    -0.00000000   -0.00000000    0.00000000
     The non-local contrib.  to forces
     atom    1 type  1   force =    -0.00000000   -0.00000000    0.00000000
     atom    2 type  1   force =     0.00000000   -0.00000000    0.00000000
     atom    3 type  1   force =    -0.00000000   -0.00000000    0.00000000
     atom    4 type  1   force =     0.00000000   -0.00000000    0.00000000
     The ionic contribution  to forces
     atom    1 type  1   force =     0.00000850   -0.00000491   -0.00000000
     atom    2 type  1   force =    -0.00000850    0.00000491    0.00000000
     atom    3 type  1   force =    -0.00000853    0.00000492   -0.00000000
     atom    4 type  1   force =     0.00000853   -0.00000492    0.00000000
     The local contribution  to forces
     atom    1 type  1   force =    -0.00000000    0.00000000    0.00000000
     atom    2 type  1   force =     0.00000000   -0.00000000    0.00000000
     atom    3 type  1   force =    -0.00000679    0.00000392    0.00000000
     atom    4 type  1   force =     0.00000679   -0.00000392    0.00000000
     The core correction contribution to forces
     atom    1 type  1   force =    -0.00000000    0.00000000   -0.00000000
     atom    2 type  1   force =     0.00000000   -0.00000000   -0.00000000
     atom    3 type  1   force =     0.00000053   -0.00000031    0.00000000
     atom    4 type  1   force =    -0.00000053    0.00000031   -0.00000000
     The Hubbard contrib.    to forces
     atom    1 type  1   force =     0.00000000    0.00000000    0.00000000
     atom    2 type  1   force =     0.00000000    0.00000000    0.00000000
     atom    3 type  1   force =     0.00000000    0.00000000    0.00000000
     atom    4 type  1   force =     0.00000000    0.00000000    0.00000000
     The SCF correction term to forces
     atom    1 type  1   force =    -0.00000000    0.00000000    0.00000000
     atom    2 type  1   force =     0.00000000   -0.00000000    0.00000000
     atom    3 type  1   force =     0.00000000   -0.00000000   -0.00000000
     atom    4 type  1   force =    -0.00000000    0.00000000    0.00000000

     Total force =     0.000000     Total SCF correction =     0.000000


     Computing stress (Cartesian axis) and pressure



     -----------------------------------------------
     Non-local corr. energy    =       0.17978986 Ry
     -----------------------------------------------

          total   stress  (Ry/bohr**3)                   (kbar)     P=       -3.20
  -0.00001102   0.00000000  -0.00000000           -1.62        0.00       -0.00
   0.00000000  -0.00001102  -0.00000000            0.00       -1.62       -0.00
  -0.00000000  -0.00000000  -0.00004320           -0.00       -0.00       -6.35

     kinetic stress (kbar)  13295.98     -0.00      0.00
                               -0.00  13295.98     -0.00
                                0.00     -0.00  14637.50

     local   stress (kbar) -19571.53      0.01      0.00
                                0.01 -19571.52     -0.00
                                0.00     -0.00  23541.21

     nonloc. stress (kbar)  -1352.19     -0.00     -0.00
                               -0.00  -1352.19      0.00
                                0.00      0.00  -1129.43

     hartree stress (kbar)   7207.19     -0.00     -0.00
                               -0.00   7207.19     -0.00
                               -0.00     -0.00  -6188.77

     exc-cor stress (kbar)  -1057.93     -0.00      0.00
                               -0.00  -1057.93      0.00
                                0.00      0.00  -1227.50

     corecor stress (kbar)  -2016.91      0.00     -0.00
                                0.00  -2016.91     -0.00
                               -0.00     -0.00  -1961.56

     ewald   stress (kbar)   3483.71     -0.02      0.00
                               -0.02   3483.68     -0.00
                                0.00     -0.00 -27758.37

     hubbard stress (kbar)      0.00      0.00      0.00
                                0.00      0.00      0.00
                                0.00      0.00      0.00

     DFT-D   stress (kbar)      0.00      0.00      0.00
                                0.00      0.00      0.00
                                0.00      0.00      0.00

     XDM     stress (kbar)      0.00      0.00      0.00
                                0.00      0.00      0.00
                                0.00      0.00      0.00

     dft-nl  stress (kbar)     10.06      0.00     -0.00
                                0.00     10.06     -0.00
                               -0.00     -0.00     80.56

     TS-vdW  stress (kbar)      0.00      0.00      0.00
                                0.00      0.00      0.00
                                0.00      0.00      0.00

     MDB     stress (kbar)      0.00      0.00      0.00
                                0.00      0.00      0.00
                                0.00      0.00      0.00

     3D-RISM stress (kbar)      0.00      0.00      0.00
                                0.00      0.00      0.00
                                0.00      0.00      0.00

     Energy error            =      1.9E-05 Ry
     Gradient error          =      0.0E+00 Ry/Bohr
     Cell gradient error     =      6.4E+00 kbar

     number of scf cycles    =   2
     number of bfgs steps    =   1

     enthalpy           old  =     -48.2654644945 Ry
     enthalpy           new  =     -48.2654831970 Ry

     CASE: enthalpy          _new < enthalpy          _old

     new trust radius        =       0.0051194291 bohr
     new conv_thr            =       0.0000000100 Ry

     new unit-cell volume =    238.82224 a.u.^3 (    35.38980 Ang^3 )
     density =      2.25429 g/cm^3

CELL_PARAMETERS (alat=  4.66447000)
   1.000035913   0.000000000  -0.000000000
  -0.500017956   0.866056505  -0.000000000
  -0.000000000  -0.000000000   2.717102566

ATOMIC_POSITIONS (crystal)
C             0.0000000000        0.0000000000        0.0000000000    0   0   0
C             0.0000000000        0.0000000000        0.5000000000    0   0   1
C             0.6666670000        0.3333330000        0.0000000000    0   0   0
C             0.3333330000        0.6666670000        0.5000000000    0   0   1



     Writing config-only to output data dir ./tmp/CBULK_AB_PBE_vdW.save/
     NEW-OLD atomic charge density approx. for the potential


     -----------------------------------------------
     Non-local corr. energy    =       0.17939824 Ry
     -----------------------------------------------

     extrapolated charge   15.96776, renormalised to   16.00000

     total cpu time spent up to now is       18.3 secs

     Self-consistent Calculation

     iteration #  1     ecut=    80.00 Ry     beta= 0.70
     Davidson diagonalization with overlap

---- Real-time Memory Report at c_bands before calling an iterative solver
             0 MiB given to the printing process from OS
             0 MiB allocation reported by mallinfo(arena+hblkhd)
             0 MiB available memory on the node where the printing process lives
------------------
     ethr =  1.00E-06,  avg # of iterations =  2.2


     -----------------------------------------------
     Non-local corr. energy    =       0.17988653 Ry
     -----------------------------------------------


     total cpu time spent up to now is       18.9 secs

     total energy              =     -48.26545773 Ry
     estimated scf accuracy    <       0.00001890 Ry

     iteration #  2     ecut=    80.00 Ry     beta= 0.70
     Davidson diagonalization with overlap

---- Real-time Memory Report at c_bands before calling an iterative solver
             0 MiB given to the printing process from OS
             0 MiB allocation reported by mallinfo(arena+hblkhd)
             0 MiB available memory on the node where the printing process lives
------------------
     ethr =  1.18E-07,  avg # of iterations =  3.2


     -----------------------------------------------
     Non-local corr. energy    =       0.17975401 Ry
     -----------------------------------------------


     total cpu time spent up to now is       19.6 secs

     total energy              =     -48.26550493 Ry
     estimated scf accuracy    <       0.00002538 Ry

     iteration #  3     ecut=    80.00 Ry     beta= 0.70
     Davidson diagonalization with overlap

---- Real-time Memory Report at c_bands before calling an iterative solver
             0 MiB given to the printing process from OS
             0 MiB allocation reported by mallinfo(arena+hblkhd)
             0 MiB available memory on the node where the printing process lives
------------------
     ethr =  1.18E-07,  avg # of iterations =  1.0


     -----------------------------------------------
     Non-local corr. energy    =       0.17958939 Ry
     -----------------------------------------------


     total cpu time spent up to now is       20.1 secs

     total energy              =     -48.26550065 Ry
     estimated scf accuracy    <       0.00000733 Ry

     iteration #  4     ecut=    80.00 Ry     beta= 0.70
     Davidson diagonalization with overlap

---- Real-time Memory Report at c_bands before calling an iterative solver
             0 MiB given to the printing process from OS
             0 MiB allocation reported by mallinfo(arena+hblkhd)
             0 MiB available memory on the node where the printing process lives
------------------
     ethr =  4.58E-08,  avg # of iterations =  2.0


     -----------------------------------------------
     Non-local corr. energy    =       0.17960056 Ry
     -----------------------------------------------


     total cpu time spent up to now is       20.8 secs

     total energy              =     -48.26550241 Ry
     estimated scf accuracy    <       0.00000026 Ry

     iteration #  5     ecut=    80.00 Ry     beta= 0.70
     Davidson diagonalization with overlap

---- Real-time Memory Report at c_bands before calling an iterative solver
             0 MiB given to the printing process from OS
             0 MiB allocation reported by mallinfo(arena+hblkhd)
             0 MiB available memory on the node where the printing process lives
------------------
     ethr =  1.62E-09,  avg # of iterations =  1.1


     -----------------------------------------------
     Non-local corr. energy    =       0.17959981 Ry
     -----------------------------------------------


     total cpu time spent up to now is       21.3 secs

     total energy              =     -48.26550242 Ry
     estimated scf accuracy    <       0.00000009 Ry

     iteration #  6     ecut=    80.00 Ry     beta= 0.70
     Davidson diagonalization with overlap

---- Real-time Memory Report at c_bands before calling an iterative solver
             0 MiB given to the printing process from OS
             0 MiB allocation reported by mallinfo(arena+hblkhd)
             0 MiB available memory on the node where the printing process lives
------------------
     ethr =  5.52E-10,  avg # of iterations =  1.0


     -----------------------------------------------
[...]
    12.0455  15.4239  15.6325  16.2015

     occupation numbers 
     1.0000   1.0000   1.0000   1.0000   1.0000   1.0000   1.0000   1.0000
     0.0000   0.0000   0.0000   0.0000

          k = 0.0000 0.1924 0.1246 (  2857 PWs)   bands (ev):

   -11.8041 -11.6356  -0.2752   0.7802   1.7606   1.7988   2.9207   2.9449
    13.3642  15.4200  15.5732  16.2544

     occupation numbers 
     1.0000   1.0000   1.0000   1.0000   1.0000   1.0000   1.0000   1.0000
     0.0000   0.0000   0.0000   0.0000

          k = 0.0000 0.2887 0.0000 (  2846 PWs)   bands (ev):

   -11.0674 -10.7469  -0.3711  -0.2534   0.2478   2.0260   2.0836   2.3103
    13.0359  13.9710  14.6973  15.0780

     occupation numbers 
     1.0000   1.0000   1.0000   1.0000   1.0000   1.0000   1.0000   1.0000
     0.0000   0.0000   0.0000   0.0000

          k = 0.0000 0.2887 0.1246 (  2846 PWs)   bands (ev):

   -10.9913 -10.8314  -0.3423  -0.2835   0.6943   1.7086   2.0403   2.0691
    13.9649  14.4331  14.4661  15.1508

     occupation numbers 
     1.0000   1.0000   1.0000   1.0000   1.0000   1.0000   1.0000   1.0000
     0.0000   0.0000   0.0000   0.0000

          k = 0.0000 0.3849 0.0000 (  2836 PWs)   bands (ev):

    -9.9404  -9.6434  -2.5885  -2.4305   1.2906   1.3534   1.5791   3.4814
    11.5275  12.5485  14.3575  14.7279

     occupation numbers 
     1.0000   1.0000   1.0000   1.0000   1.0000   1.0000   1.0000   1.0000
     0.0000   0.0000   0.0000   0.0000

          k = 0.0000 0.3849 0.1246 (  2830 PWs)   bands (ev):

    -9.8696  -9.7213  -2.5500  -2.4711   1.3061   1.3376   1.9972   2.9359
    11.7236  12.2408  14.7736  14.9290

     occupation numbers 
     1.0000   1.0000   1.0000   1.0000   1.0000   1.0000   1.0000   1.0000
     0.0000   0.0000   0.0000   0.0000

          k = 0.0000 0.4811 0.0000 (  2838 PWs)   bands (ev):

    -8.5331  -8.2684  -4.6994  -4.5078   0.8164   0.8818   3.1400   4.6692
     9.3936  10.5069  14.4183  14.8571

     occupation numbers 
     1.0000   1.0000   1.0000   1.0000   1.0000   1.0000   1.0000   1.0000
     0.0000   0.0000   0.0000   0.0000

          k = 0.0000 0.4811 0.1246 (  2837 PWs)   bands (ev):

    -8.4696  -8.3373  -4.6533  -4.5575   0.8326   0.8654   3.4992   4.2643
     9.5705  10.1358  14.5274  14.7474

     occupation numbers 
     1.0000   1.0000   1.0000   1.0000   1.0000   1.0000   1.0000   1.0000
     0.0000   0.0000   0.0000   0.0000

          k =-0.0000-0.5773-0.0000 (  2830 PWs)   bands (ev):

    -7.2200  -7.0887  -6.1416  -6.0428   0.6535   0.7199   4.2579   5.0266
     8.5918   9.3303  14.3265  14.7900

     occupation numbers 
     1.0000   1.0000   1.0000   1.0000   1.0000   1.0000   1.0000   1.0000
     0.0000   0.0000   0.0000   0.0000

          k =-0.0000-0.5773 0.1246 (  2826 PWs)   bands (ev):

    -7.1822  -7.1157  -6.1273  -6.0769   0.6700   0.7032   4.5044   4.9065
     8.5828   8.9695  14.4376  14.6701

     occupation numbers 
     1.0000   1.0000   1.0000   1.0000   1.0000   1.0000   1.0000   1.0000
     0.0000   0.0000   0.0000   0.0000

          k = 0.0833 0.1443 0.0000 (  2855 PWs)   bands (ev):

   -12.0482 -11.7073  -0.9370   1.2280   2.3605   2.3992   3.0352   3.0638
    11.8473  15.8148  15.9447  16.7325

     occupation numbers 
     1.0000   1.0000   1.0000   1.0000   1.0000   1.0000   1.0000   1.0000
     0.0000   0.0000   0.0000   0.0000

          k = 0.0833 0.1443 0.1246 (  2863 PWs)   bands (ev):

   -11.9676 -11.7974  -0.4718   0.5911   2.3707   2.3901   3.0417   3.0560
    13.1822  15.7487  15.9118  16.2743

     occupation numbers 
     1.0000   1.0000   1.0000   1.0000   1.0000   1.0000   1.0000   1.0000
     0.0000   0.0000   0.0000   0.0000

          k = 0.0833 0.2405 0.0000 (  2846 PWs)   bands (ev):

   -11.3931 -11.0659  -0.1430   0.6350   0.7163   1.9568   2.0284   2.0811
    12.6456  14.9087  15.4252  15.8864

     occupation numbers 
     1.0000   1.0000   1.0000   1.0000   1.0000   1.0000   1.0000   1.0000
     0.0000   0.0000   0.0000   0.0000

          k = 0.0833 0.2405 0.1246 (  2844 PWs)   bands (ev):

   -11.3155 -11.1521   0.3094   0.6552   0.6965   1.3424   2.0411   2.0675
    13.9176  15.0241  15.2553  15.9188

     occupation numbers 
     1.0000   1.0000   1.0000   1.0000   1.0000   1.0000   1.0000   1.0000
     0.0000   0.0000   0.0000   0.0000

          k = 0.0833 0.3368 0.0000 (  2835 PWs)   bands (ev):

   -10.4212 -10.1142  -1.4560  -1.3255   1.0197   1.1341   1.2047   3.0022
    12.6372  13.4282  13.8303  15.5738

     occupation numbers 
     1.0000   1.0000   1.0000   1.0000   1.0000   1.0000   1.0000   1.0000
     0.0000   0.0000   0.0000   0.0000

          k = 0.0833 0.3368 0.1246 (  2837 PWs)   bands (ev):

   -10.3481 -10.1948  -1.4241  -1.3589   1.1514   1.1867   1.4515   2.4279
    12.7957  13.2015  15.0214  15.6529

     occupation numbers 
     1.0000   1.0000   1.0000   1.0000   1.0000   1.0000   1.0000   1.0000
     0.0000   0.0000   0.0000   0.0000

          k = 0.0833 0.4330 0.0000 (  2829 PWs)   bands (ev):

    -9.1512  -8.8713  -3.5933  -3.4214   0.4954   0.5740   2.4884   4.2408
    10.3360  11.3669  15.1824  15.3964

     occupation numbers 
     1.0000   1.0000   1.0000   1.0000   1.0000   1.0000   1.0000   1.0000
     0.0000   0.0000   0.0000   0.0000

          k = 0.0833 0.4330 0.1246 (  2833 PWs)   bands (ev):

    -9.0843  -8.9445  -3.5516  -3.4657   0.5147   0.5541   2.8811   3.7494
    10.5361  11.0577  15.3360  15.5332

     occupation numbers 
     1.0000   1.0000   1.0000   1.0000   1.0000   1.0000   1.0000   1.0000
     0.0000   0.0000   0.0000   0.0000

          k = 0.0833 0.5292 0.0000 (  2829 PWs)   bands (ev):

    -7.6544  -7.4226  -5.5354  -5.3466   0.1653   0.2472   4.0207   5.1446
     8.7465   9.6081  15.0493  15.5305

     occupation numbers 
     1.0000   1.0000   1.0000   1.0000   1.0000   1.0000   1.0000   1.0000
     0.0000   0.0000   0.0000   0.0000

          k = 0.0833 0.5292 0.1246 (  2833 PWs)   bands (ev):

    -7.5980  -7.4821  -5.4910  -5.3965   0.1854   0.2264   4.3208   4.8964
     8.8190   9.2687  15.1622  15.4031

     occupation numbers 
     1.0000   1.0000   1.0000   1.0000   1.0000   1.0000   1.0000   1.0000
     0.0000   0.0000   0.0000   0.0000

          k = 0.1667 0.2887 0.0000 (  2831 PWs)   bands (ev):

   -10.5825 -10.2722  -0.6872  -0.6222   0.6775   0.7248   0.8310   2.8388
    13.1768  13.6423  13.7282  17.0507

     occupation numbers 
     1.0000   1.0000   1.0000   1.0000   1.0000   1.0000   1.0000   1.0000
     0.0000   0.0000   0.0000   0.0000

          k = 0.1667 0.2887 0.1246 (  2835 PWs)   bands (ev):

   -10.5087 -10.3538  -0.6703  -0.6378   0.6877   0.7114   1.2673   2.2555
    13.3104  13.5807  14.8470  16.9851

     occupation numbers 
     1.0000   1.0000   1.0000   1.0000   1.0000   1.0000   1.0000   1.0000
     0.0000   0.0000   0.0000   0.0000

          k = 0.1667 0.3849 0.0000 (  2845 PWs)   bands (ev):

    -9.4664  -9.1795  -2.4374  -2.3145  -0.3964  -0.3112   2.1481   3.9956
    11.1581  11.8720  15.0112  17.1349

     occupation numbers 
     1.0000   1.0000   1.0000   1.0000   1.0000   1.0000   1.0000   1.0000
     0.0000   0.0000   0.0000   0.0000

          k = 0.1667 0.3849 0.1246 (  2838 PWs)   bands (ev):

    -9.3979  -9.2546  -2.4069  -2.3454  -0.3763  -0.3337   2.5555   3.4678
    11.3270  11.6852  16.0387  17.1910

     occupation numbers 
     1.0000   1.0000   1.0000   1.0000   1.0000   1.0000   1.0000   1.0000
     0.0000   0.0000   0.0000   0.0000

          k = 0.1667 0.4811 0.0000 (  2839 PWs)   bands (ev):

    -8.0791  -7.8246  -4.3655  -4.1924  -0.9842  -0.8768   3.7033   5.2098
     9.2254  10.0659  16.6699  16.9077

     occupation numbers 
     1.0000   1.0000   1.0000   1.0000   1.0000   1.0000   1.0000   1.0000
     0.0000   0.0000   0.0000   0.0000

          k = 0.1667 0.4811 0.1246 (  2839 PWs)   bands (ev):

    -8.0179  -7.8907  -4.3236  -4.2370  -0.9582  -0.9045   4.0556   4.8084
     9.3865   9.8156  16.9671  17.1163

     occupation numbers 
     1.0000   1.0000   1.0000   1.0000   1.0000   1.0000   1.0000   1.0000
     0.0000   0.0000   0.0000   0.0000

          k = 0.1667 0.5773 0.0000 (  2840 PWs)   bands (ev):

    -6.7969  -6.6707  -5.7401  -5.6531  -1.1720  -1.0594   4.8563   5.6083
     8.5356   8.8565  16.7652  17.3910

     occupation numbers 
     1.0000   1.0000   1.0000   1.0000   1.0000   1.0000   1.0000   1.0000
     0.0000   0.0000   0.0000   0.0000

          k = 0.1667 0.5773 0.1246 (  2837 PWs)   bands (ev):

    -6.7606  -6.6968  -5.7278  -5.6834  -1.1446  -1.0883   5.1028   5.4987
     8.4622   8.6515  16.8708  17.1655

     occupation numbers 
     1.0000   1.0000   1.0000   1.0000   1.0000   1.0000   1.0000   1.0000
     0.0000   0.0000   0.0000   0.0000

          k = 0.2500 0.4330 0.0000 (  2841 PWs)   bands (ev):

    -8.2285  -7.9692  -3.4585  -3.3684  -1.8603  -1.7938   3.5792   5.2065
     9.5535  10.2417  16.5177  18.8874

     occupation numbers 
     1.0000   1.0000   1.0000   1.0000   1.0000   1.0000   1.0000   1.0000
     0.0000   0.0000   0.0000   0.0000

          k = 0.2500 0.4330 0.1246 (  2846 PWs)   bands (ev):

    -8.1662  -8.0367  -3.4348  -3.3897  -1.8470  -1.8136   3.9475   4.7549
     9.7266  10.0674  17.0561  17.9616

     occupation numbers 
     1.0000   1.0000   1.0000   1.0000   1.0000   1.0000   1.0000   1.0000
     0.0000   0.0000   0.0000   0.0000

          k = 0.2500 0.5292 0.0000 (  2840 PWs)   bands (ev):

    -6.7893  -6.5773  -4.8974  -4.7544  -2.5910  -2.4790   5.1361   6.2676
     8.1347   8.7508  18.1970  18.7507

     occupation numbers 
     1.0000   1.0000   1.0000   1.0000   1.0000   1.0000   1.0000   1.0000
     0.0000   0.0000   0.0000   0.0000

          k = 0.2500 0.5292 0.1246 (  2836 PWs)   bands (ev):

    -6.7375  -6.6315  -4.8629  -4.7913  -2.5654  -2.5093   5.4331   6.0128
     8.2372   8.5464  17.4575  17.6614

     occupation numbers 
     1.0000   1.0000   1.0000   1.0000   1.0000   1.0000   1.0000   1.0000
     0.0000   0.0000   0.0000   0.0000

          k = 0.3333 0.5773 0.0000 (  2874 PWs)   bands (ev):

    -5.5858  -5.4712  -5.4712  -5.3619  -3.4196  -3.4196   6.3644   7.0531
     7.0531   7.9002  18.1767  18.1767

     occupation numbers 
     1.0000   1.0000   1.0000   1.0000   1.0000   1.0000   1.0000   0.7334
     0.7334   0.0000   0.0000   0.0000

          k = 0.3333 0.5773 0.1246 (  2826 PWs)   bands (ev):

    -5.5318  -5.4689  -5.4689  -5.4199  -3.4246  -3.4246   6.7077   7.0857
     7.0857   7.4683  17.2612  17.2612

     occupation numbers 
     1.0000   1.0000   1.0000   1.0000   1.0000   1.0000   1.0000   0.3833
     0.3833   0.0000   0.0000   0.0000

     the Fermi energy is     7.0839 ev

!    total energy              =     -48.26552901 Ry
     estimated scf accuracy    <          2.8E-09 Ry
     smearing contrib. (-TS)   =      -0.00004046 Ry
     internal energy E=F+TS    =     -48.26548855 Ry

     The total energy is F=E-TS. E is the sum of the following terms:
     one-electron contribution =      -9.26983895 Ry
     hartree contribution      =      12.83858876 Ry
     xc contribution           =     -17.23176728 Ry
     ewald contribution        =     -34.60247109 Ry

     convergence has been achieved in   7 iterations


     -----------------------------------------------
     Non-local corr. energy    =       0.17809428 Ry
     -----------------------------------------------


     Forces acting on atoms (cartesian axes, Ry/au):

     atom    1 type  1   force =    -0.00000000   -0.00000000   -0.00000000
     atom    2 type  1   force =     0.00000000   -0.00000000   -0.00000000
     atom    3 type  1   force =     0.00000000    0.00000000    0.00000000
     atom    4 type  1   force =    -0.00000000   -0.00000000   -0.00000000
     The non-local contrib.  to forces
     atom    1 type  1   force =    -0.00000000   -0.00000000   -0.00000000
     atom    2 type  1   force =     0.00000000    0.00000000    0.00000000
     atom    3 type  1   force =     0.00000000    0.00000000    0.00000000
     atom    4 type  1   force =    -0.00000000   -0.00000000   -0.00000000
     The ionic contribution  to forces
     atom    1 type  1   force =     0.00000850   -0.00000491   -0.00000000
     atom    2 type  1   force =    -0.00000850    0.00000491    0.00000000
     atom    3 type  1   force =    -0.00000853    0.00000493   -0.00000000
     atom    4 type  1   force =     0.00000853   -0.00000493    0.00000000
     The local contribution  to forces
     atom    1 type  1   force =     0.00000000    0.00000000    0.00000000
     atom    2 type  1   force =    -0.00000000   -0.00000000    0.00000000
     atom    3 type  1   force =    -0.00000679    0.00000392    0.00000000
     atom    4 type  1   force =     0.00000679   -0.00000392    0.00000000
     The core correction contribution to forces
     atom    1 type  1   force =    -0.00000000    0.00000000   -0.00000000
     atom    2 type  1   force =     0.00000000   -0.00000000   -0.00000000
     atom    3 type  1   force =     0.00000053   -0.00000031    0.00000000
     atom    4 type  1   force =    -0.00000053    0.00000031   -0.00000000
     The Hubbard contrib.    to forces
     atom    1 type  1   force =     0.00000000    0.00000000    0.00000000
     atom    2 type  1   force =     0.00000000    0.00000000    0.00000000
     atom    3 type  1   force =     0.00000000    0.00000000    0.00000000
     atom    4 type  1   force =     0.00000000    0.00000000    0.00000000
     The SCF correction term to forces
     atom    1 type  1   force =    -0.00000000    0.00000000   -0.00000000
     atom    2 type  1   force =     0.00000000   -0.00000000   -0.00000000
     atom    3 type  1   force =     0.00000000   -0.00000000   -0.00000000
     atom    4 type  1   force =    -0.00000000    0.00000000    0.00000000

     Total force =     0.000000     Total SCF correction =     0.000000


     Computing stress (Cartesian axis) and pressure



     -----------------------------------------------
     Non-local corr. energy    =       0.17809428 Ry
     -----------------------------------------------

          total   stress  (Ry/bohr**3)                   (kbar)     P=       -0.47
  -0.00000234  -0.00000000  -0.00000000           -0.34       -0.00       -0.00
   0.00000000  -0.00000234  -0.00000000            0.00       -0.34       -0.00
  -0.00000000  -0.00000000  -0.00000484           -0.00       -0.00       -0.71

     kinetic stress (kbar)  13537.63      0.00      0.00
                                0.00  13537.63     -0.00
                                0.00     -0.00  14908.55

     local   stress (kbar) -19101.32      0.01     -0.00
                                0.01 -19101.31     -0.00
                               -0.00     -0.00  23147.60

     nonloc. stress (kbar)  -1376.99      0.00     -0.00
                                0.00  -1376.99      0.00
                               -0.00     -0.00  -1150.90

     hartree stress (kbar)   6998.12     -0.00     -0.00
                               -0.00   6998.12      0.00
                               -0.00      0.00  -5962.41

     exc-cor stress (kbar)  -1077.77     -0.00      0.00
                               -0.00  -1077.77      0.00
                                0.00      0.00  -1248.96

     corecor stress (kbar)  -2053.15      0.00     -0.00
                                0.00  -2053.15     -0.00
                               -0.00     -0.00  -1996.86

     ewald   stress (kbar)   3062.81     -0.02     -0.00
                               -0.02   3062.78      0.00
                               -0.00      0.00 -27778.30

     hubbard stress (kbar)      0.00      0.00      0.00
                                0.00      0.00      0.00
                                0.00      0.00      0.00

     DFT-D   stress (kbar)      0.00      0.00      0.00
                                0.00      0.00      0.00
                                0.00      0.00      0.00

     XDM     stress (kbar)      0.00      0.00      0.00
                                0.00      0.00      0.00
                                0.00      0.00      0.00

     dft-nl  stress (kbar)     10.34      0.00     -0.00
                                0.00     10.34      0.00
                               -0.00      0.00     80.58

     TS-vdW  stress (kbar)      0.00      0.00      0.00
                                0.00      0.00      0.00
                                0.00      0.00      0.00

     MDB     stress (kbar)      0.00      0.00      0.00
                                0.00      0.00      0.00
                                0.00      0.00      0.00

     3D-RISM stress (kbar)      0.00      0.00      0.00
                                0.00      0.00      0.00
                                0.00      0.00      0.00


     Writing all to output data dir ./tmp/CBULK_AB_PBE_vdW.save/

     init_run     :      9.77s CPU      9.86s WALL (       2 calls)
     electrons    :     50.57s CPU     53.49s WALL (      10 calls)
     update_pot   :      1.61s CPU      1.63s WALL (       8 calls)
     forces       :      1.67s CPU      1.72s WALL (      10 calls)
     stress       :      5.77s CPU      6.06s WALL (      10 calls)

     Called by init_run:
     wfcinit      :      0.49s CPU      0.51s WALL (       2 calls)
     wfcinit:atom :      0.01s CPU      0.01s WALL (      76 calls)
     wfcinit:wfcr :      0.46s CPU      0.48s WALL (      76 calls)
     potinit      :      8.86s CPU      8.89s WALL (       2 calls)
     hinit0       :      0.39s CPU      0.41s WALL (       2 calls)

     Called by electrons:
     c_bands      :     42.02s CPU     44.39s WALL (      78 calls)
     sum_band     :      6.12s CPU      6.38s WALL (      78 calls)
     v_of_rho     :     11.33s CPU     11.55s WALL (      85 calls)
     v_h          :      0.03s CPU      0.03s WALL (      85 calls)
     v_xc         :     11.90s CPU     12.24s WALL (     105 calls)
     mix_rho      :      0.07s CPU      0.15s WALL (      78 calls)
     vdW_kernel   :      8.72s CPU      8.74s WALL (       1 calls)

     Called by c_bands:
     init_us_2    :      0.59s CPU      0.62s WALL (    6764 calls)
     init_us_2:cp :      0.58s CPU      0.60s WALL (    6764 calls)
     cegterg      :     40.72s CPU     42.98s WALL (    2964 calls)

     Called by sum_band:
     sum_band:wei :      0.03s CPU      0.03s WALL (      78 calls)
     sum_band:loo :      6.02s CPU      6.27s WALL (      78 calls)
     sum_band:buf :      0.05s CPU      0.05s WALL (    2964 calls)
     sum_band:ini :      0.24s CPU      0.26s WALL (    2964 calls)

     Called by *egterg:
     cdiaghg      :      1.81s CPU      1.85s WALL (    9144 calls)
     cegterg:over :      1.87s CPU      1.92s WALL (    6598 calls)
     cegterg:upda :      1.36s CPU      1.77s WALL (    6598 calls)
     cegterg:last :      1.39s CPU      1.55s WALL (    5194 calls)
     h_psi        :     33.08s CPU     34.42s WALL (    9638 calls)
     g_psi        :      0.16s CPU      0.22s WALL (    6598 calls)

     Called by h_psi:
     h_psi:calbec :      1.90s CPU      1.96s WALL (    9638 calls)
     vloc_psi     :     29.09s CPU     30.27s WALL (    9638 calls)
     add_vuspsi   :      1.92s CPU      1.98s WALL (    9638 calls)

     General routines
     calbec       :      2.73s CPU      2.79s WALL (   11538 calls)
     fft          :      1.89s CPU      1.97s WALL (    6791 calls)
     ffts         :      0.02s CPU      0.02s WALL (      78 calls)
     fftw         :     32.32s CPU     33.45s WALL (  215990 calls)

     Parallel routines

     PWSCF        :   1m 9.59s CPU   1m13.07s WALL


   This run was terminated on:  11:29:44   4Apr2024            

=------------------------------------------------------------------------------=
   JOB DONE.
=------------------------------------------------------------------------------=
