
     Program PWSCF v.7.2 starts on  4Apr2024 at 16:36:50 

     This program is part of the open-source Quantum ESPRESSO suite
     for quantum simulation of materials; please cite
         "P. Giannozzi et al., J. Phys.:Condens. Matter 21 395502 (2009);
         "P. Giannozzi et al., J. Phys.:Condens. Matter 29 465901 (2017);
         "P. Giannozzi et al., J. Chem. Phys. 152 154105 (2020);
          URL http://www.quantum-espresso.org", 
     in publications or presentations arising from this work. More details at
     http://www.quantum-espresso.org/quote

     Parallel version (MPI & OpenMP), running on       1 processor cores
     Number of MPI processes:                 1
     Threads/MPI process:                     1

     MPI processes distributed on     1 nodes
     0 MiB available memory on the printing compute node when the environment starts

     Waiting for input...
     Reading input from standard input

     Current dimensions of program PWSCF are:
     Max number of different atomic species (ntypx) = 10
     Max number of k-points (npk) =  40000
     Max angular momentum in pseudopotentials (lmaxx) =  4

     IMPORTANT: XC functional enforced from input :
     Exchange-correlation= VDW-DF2-B86R
                           (   1   4  26   0   2   0   0)
     Any further DFT definition will be discarded
     Please, verify this is what you really want


     Subspace diagonalization in iterative solution of the eigenvalue problem:
     a serial algorithm will be used


     G-vector sticks info
     --------------------
     sticks:   dense  smooth     PW     G-vecs:    dense   smooth      PW
     Sum         361     361    109                44285    44285    7663

     Using Slab Decomposition



     bravais-lattice index     =            4
     lattice parameter (alat)  =       4.6645  a.u.
     unit-cell volume          =     703.1169 (a.u.)^3
     number of atoms/cell      =            4
     number of atomic types    =            1
     number of electrons       =        16.00
     number of Kohn-Sham states=           16
     kinetic-energy cutoff     =      60.0000  Ry
     charge density cutoff     =     240.0000  Ry
     scf convergence threshold =      1.0E-06
     mixing beta               =       0.7000
     number of iterations used =            8  plain     mixing
     Exchange-correlation= VDW-DF2-B86R
                           (   1   4  26   0   2   0   0)

     celldm(1)=   4.664470  celldm(2)=   0.000000  celldm(3)=   8.000000
     celldm(4)=   0.000000  celldm(5)=   0.000000  celldm(6)=   0.000000

     crystal axes: (cart. coord. in units of alat)
               a(1) = (   1.000000   0.000000   0.000000 )  
               a(2) = (  -0.500000   0.866025   0.000000 )  
               a(3) = (   0.000000   0.000000   8.000000 )  

     reciprocal axes: (cart. coord. in units 2 pi/alat)
               b(1) = (  1.000000  0.577350 -0.000000 )  
               b(2) = (  0.000000  1.154701  0.000000 )  
               b(3) = (  0.000000 -0.000000  0.125000 )  


     PseudoPot. # 1 for C  read from file:
     ../../../../Pseudo/PBE/C.upf
     MD5 check sum: 34a24e64c0a39f27c6c36b90a16ac686
     Pseudo is Norm-conserving + core correction, Zval =  4.0
     Generated using ONCVPSP code by D. R. Hamann
     Using radial grid of 1248 points,  4 beta functions with: 
                l(1) =   0
                l(2) =   0
                l(3) =   1
                l(4) =   1

     atomic species   valence    mass     pseudopotential
        C              4.00    12.01100     C ( 1.00)

      6 Sym. Ops. (no inversion) found


                                    s                        frac. trans.

      isym =  1     identity                                     

 cryst.   s( 1) = (     1          0          0      )
                  (     0          1          0      )
                  (     0          0          1      )

 cart.    s( 1) = (  1.0000000  0.0000000  0.0000000 )
                  (  0.0000000  1.0000000  0.0000000 )
                  (  0.0000000  0.0000000  1.0000000 )


      isym =  2     120 deg rotation - cryst. axis [0,0,1]       

 cryst.   s( 2) = (     0          1          0      )
                  (    -1         -1          0      )
                  (     0          0          1      )

 cart.    s( 2) = ( -0.5000000 -0.8660254  0.0000000 )
                  (  0.8660254 -0.5000000  0.0000000 )
                  (  0.0000000  0.0000000  1.0000000 )


      isym =  3     120 deg rotation - cryst. axis [0,0,-1]      

 cryst.   s( 3) = (    -1         -1          0      )
                  (     1          0          0      )
                  (     0          0          1      )

 cart.    s( 3) = ( -0.5000000  0.8660254  0.0000000 )
                  ( -0.8660254 -0.5000000  0.0000000 )
                  (  0.0000000  0.0000000  1.0000000 )


      isym =  4     inv. 180 deg rotation - cart. axis [1,0,0]   

 cryst.   s( 4) = (    -1          0          0      )
                  (     1          1          0      )
                  (     0          0          1      )

 cart.    s( 4) = ( -1.0000000  0.0000000  0.0000000 )
                  (  0.0000000  1.0000000  0.0000000 )
                  (  0.0000000  0.0000000  1.0000000 )


      isym =  5     inv. 180 deg rotation - cryst. axis [0,1,0]  

 cryst.   s( 5) = (     1          1          0      )
                  (     0         -1          0      )
                  (     0          0          1      )

 cart.    s( 5) = (  0.5000000  0.8660254  0.0000000 )
                  (  0.8660254 -0.5000000  0.0000000 )
                  (  0.0000000  0.0000000  1.0000000 )


      isym =  6     inv. 180 deg rotation - cryst. axis [1,1,0]  

 cryst.   s( 6) = (     0         -1          0      )
                  (    -1          0          0      )
                  (     0          0          1      )

 cart.    s( 6) = (  0.5000000 -0.8660254  0.0000000 )
                  ( -0.8660254 -0.5000000  0.0000000 )
                  (  0.0000000  0.0000000  1.0000000 )


     point group C_3v (3m)  
     there are  3 classes
     the character table:

       E     2C3   3s_v 
A_1    1.00  1.00  1.00
A_2    1.00  1.00 -1.00
E      2.00 -1.00  0.00

     the symmetry operations in each class and the name of the first element:

     E        1
          identity                                               
     2C3      2    3
          120 deg rotation - cryst. axis [0,0,1]                 
     3s_v     4    5    6
          inv. 180 deg rotation - cart. axis [1,0,0]             

   Cartesian axes

     site n.     atom                  positions (alat units)
         1           C   tau(   1) = (   0.0000000   0.0000000   0.0000000  )
         2           C   tau(   2) = (   0.0000000   0.0000000   1.3401360  )
         3           C   tau(   3) = (   0.5000005   0.2886748   0.0000000  )
         4           C   tau(   4) = (  -0.0000005   0.5773506   1.3401360  )

   Crystallographic axes

     site n.     atom                  positions (cryst. coord.)
         1           C   tau(   1) = (  0.0000000  0.0000000  0.0000000  )
         2           C   tau(   2) = (  0.0000000  0.0000000  0.1675170  )
         3           C   tau(   3) = (  0.6666670  0.3333330  0.0000000  )
         4           C   tau(   4) = (  0.3333330  0.6666670  0.1675170  )

     number of k points=    19  Marzari-Vanderbilt smearing, width (Ry)=  0.0050
                       cart. coord. in units 2pi/alat
        k(    1) = (   0.0000000   0.0000000   0.0000000), wk =   0.0138889
        k(    2) = (   0.0000000   0.0962250   0.0000000), wk =   0.0833333
        k(    3) = (   0.0000000   0.1924501   0.0000000), wk =   0.0833333
        k(    4) = (   0.0000000   0.2886751   0.0000000), wk =   0.0833333
        k(    5) = (   0.0000000   0.3849002   0.0000000), wk =   0.0833333
        k(    6) = (   0.0000000   0.4811252   0.0000000), wk =   0.0833333
        k(    7) = (   0.0000000  -0.5773503   0.0000000), wk =   0.0416667
        k(    8) = (   0.0833333   0.1443376   0.0000000), wk =   0.0833333
        k(    9) = (   0.0833333   0.2405626   0.0000000), wk =   0.1666667
        k(   10) = (   0.0833333   0.3367877   0.0000000), wk =   0.1666667
        k(   11) = (   0.0833333   0.4330127   0.0000000), wk =   0.1666667
        k(   12) = (   0.0833333   0.5292377   0.0000000), wk =   0.1666667
        k(   13) = (   0.1666667   0.2886751   0.0000000), wk =   0.0833333
        k(   14) = (   0.1666667   0.3849002   0.0000000), wk =   0.1666667
        k(   15) = (   0.1666667   0.4811252   0.0000000), wk =   0.1666667
        k(   16) = (   0.1666667   0.5773503   0.0000000), wk =   0.0833333
        k(   17) = (   0.2500000   0.4330127   0.0000000), wk =   0.0833333
        k(   18) = (   0.2500000   0.5292377   0.0000000), wk =   0.1666667
        k(   19) = (   0.3333333   0.5773503   0.0000000), wk =   0.0277778

                       cryst. coord.
        k(    1) = (   0.0000000   0.0000000   0.0000000), wk =   0.0138889
        k(    2) = (   0.0000000   0.0833333   0.0000000), wk =   0.0833333
        k(    3) = (   0.0000000   0.1666667   0.0000000), wk =   0.0833333
        k(    4) = (   0.0000000   0.2500000   0.0000000), wk =   0.0833333
        k(    5) = (   0.0000000   0.3333333   0.0000000), wk =   0.0833333
        k(    6) = (   0.0000000   0.4166667   0.0000000), wk =   0.0833333
        k(    7) = (   0.0000000  -0.5000000   0.0000000), wk =   0.0416667
        k(    8) = (   0.0833333   0.0833333   0.0000000), wk =   0.0833333
        k(    9) = (   0.0833333   0.1666667   0.0000000), wk =   0.1666667
        k(   10) = (   0.0833333   0.2500000   0.0000000), wk =   0.1666667
        k(   11) = (   0.0833333   0.3333333   0.0000000), wk =   0.1666667
        k(   12) = (   0.0833333   0.4166667   0.0000000), wk =   0.1666667
        k(   13) = (   0.1666667   0.1666667   0.0000000), wk =   0.0833333
        k(   14) = (   0.1666667   0.2500000   0.0000000), wk =   0.1666667
        k(   15) = (   0.1666667   0.3333333   0.0000000), wk =   0.1666667
        k(   16) = (   0.1666667   0.4166667   0.0000000), wk =   0.0833333
        k(   17) = (   0.2500000   0.2500000   0.0000000), wk =   0.0833333
        k(   18) = (   0.2500000   0.3333333   0.0000000), wk =   0.1666667
        k(   19) = (   0.3333333   0.3333333   0.0000000), wk =   0.0277778

     Dense  grid:    44285 G-vectors     FFT dimensions: (  24,  24, 192)

     Dynamical RAM for                 wfc:       1.35 MB

     Dynamical RAM for     wfc (w. buffer):      26.94 MB

     Dynamical RAM for           str. fact:       0.68 MB

     Dynamical RAM for           local pot:       0.00 MB

     Dynamical RAM for          nlocal pot:       2.69 MB

     Dynamical RAM for                qrad:       0.36 MB

     Dynamical RAM for          rho,v,vnew:       4.56 MB

     Dynamical RAM for               rhoin:       1.52 MB

     Dynamical RAM for            rho*nmix:      10.81 MB

     Dynamical RAM for           G-vectors:       2.87 MB

     Dynamical RAM for          h,s,v(r/c):       0.05 MB

     Dynamical RAM for          <psi|beta>:       0.01 MB

     Dynamical RAM for                 psi:       2.69 MB

     Dynamical RAM for                hpsi:       2.69 MB

     Dynamical RAM for      wfcinit/wfcrot:       2.70 MB

     Estimated static dynamical RAM per process >      45.19 MB

     Estimated max dynamical RAM per process >      61.44 MB

     Initial potential from superposition of free atoms

     starting charge      15.9998, renormalised to      16.0000

     negative rho (up, down):  2.374E-05 0.000E+00


     %%%%%%%%%%%%%%%%%%%%%%%%%%%%%%%%%%%%%%%%%%%%%%%%%%%%%%%%%%%%%%%%%%%%%%%%
     %                                                                      %
     % You are using vdW-DF, which was implemented by the Thonhauser group. %
     % Please cite the following two papers that made this development      %
     % possible and the two reviews that describe the various versions:     %
     %                                                                      %
     %   T. Thonhauser et al., PRL 115, 136402 (2015).                      %
     %   T. Thonhauser et al., PRB 76, 125112 (2007).                       %
     %   K. Berland et al., Rep. Prog. Phys. 78, 066501 (2015).             %
     %   D.C. Langreth et al., J. Phys.: Condens. Matter 21, 084203 (2009). %
     %                                                                      %
     % If you are calculating stress with vdW-DF, please also cite:         %
     %                                                                      %
     %   R. Sabatini et al., J. Phys.: Condens. Matter 24, 424209 (2012).   %
     %                                                                      %
     %%%%%%%%%%%%%%%%%%%%%%%%%%%%%%%%%%%%%%%%%%%%%%%%%%%%%%%%%%%%%%%%%%%%%%%%

     %%%%%%%%%%%%%%%%%%%%%%%%%%%%%%%%%%%%%%%%%%%%%%%%%%%%%%%%%%%%%%%%%%%%%%%%
     %                                                                      %
     %  vdW-DF NEWS:                                                        %
     %                                                                      %
     %  * vdW-DF3 is now available. DOI: 10.1021/acs.jctc.0c00471           %
     %    use with input_dft = 'vdW-DF3-opt1' or 'vdW-DF3-opt2'             %
     %                                                                      %
     %  * Unscreened and range-separated hybrid vdW-DF-cx functionals       %
     %    DOI: 10.1063/1.4986522 and 10.1088/1361-648X/ac2ad2               %
     %    use with input_dft = 'vdW-DF-cx0'    and 'vdW-DF-ahcx'            %
     %  * Unscreened and range-separated hybrid vdW-DF2-b86r functionals    %
     %    DOI: 10.1063/1.4986522 and DOI: 10.1103/PhysRevX.12.041003        %
     %    use with input_dft = 'vdW-DF2-br0' and 'vdW-DF2-ahbr'             %
     %                                                                      %
     %%%%%%%%%%%%%%%%%%%%%%%%%%%%%%%%%%%%%%%%%%%%%%%%%%%%%%%%%%%%%%%%%%%%%%%%


     Carrying out vdW-DF run using the following parameters:
     Nqs    =  20  Npoints =  1024  r_max =  100.000
     q_mesh =  0.00001000  0.04494208  0.09755937  0.15916263
               0.23128650  0.31572767  0.41458969  0.53033537
               0.66584808  0.82450364  1.01025438  1.22772762
               1.48234092  1.78043706  2.12944203  2.53805004
               3.01644009  3.57652955  4.23227104  5.00000000


     -----------------------------------------------
     Non-local corr. energy    =       0.17027161 Ry
     -----------------------------------------------

     Starting wfcs are   16 randomized atomic wfcs

     total cpu time spent up to now is       54.5 secs

     Self-consistent Calculation

     iteration #  1     ecut=    60.00 Ry     beta= 0.70
     Davidson diagonalization with overlap

---- Real-time Memory Report at c_bands before calling an iterative solver
             0 MiB given to the printing process from OS
             0 MiB allocation reported by mallinfo(arena+hblkhd)
             0 MiB available memory on the node where the printing process lives
------------------
     ethr =  1.00E-02,  avg # of iterations =  8.6

     negative rho (up, down):  2.468E-08 0.000E+00


     -----------------------------------------------
     Non-local corr. energy    =       0.19457031 Ry
     -----------------------------------------------


     total cpu time spent up to now is       57.4 secs

     total energy              =     -48.18823359 Ry
     estimated scf accuracy    <       0.37072607 Ry

     iteration #  2     ecut=    60.00 Ry     beta= 0.70
     Davidson diagonalization with overlap

---- Real-time Memory Report at c_bands before calling an iterative solver
             0 MiB given to the printing process from OS
             0 MiB allocation reported by mallinfo(arena+hblkhd)
             0 MiB available memory on the node where the printing process lives
------------------
     ethr =  2.32E-03,  avg # of iterations =  5.8


     -----------------------------------------------
     Non-local corr. energy    =       0.19403987 Ry
     -----------------------------------------------


     total cpu time spent up to now is       59.4 secs

     total energy              =     -48.24197032 Ry
     estimated scf accuracy    <       0.00523602 Ry

     iteration #  3     ecut=    60.00 Ry     beta= 0.70
     Davidson diagonalization with overlap

---- Real-time Memory Report at c_bands before calling an iterative solver
             0 MiB given to the printing process from OS
             0 MiB allocation reported by mallinfo(arena+hblkhd)
             0 MiB available memory on the node where the printing process lives
------------------
     c_bands:  1 eigenvalues not converged
     c_bands:  1 eigenvalues not converged
     ethr =  3.27E-05,  avg # of iterations =  9.8


     -----------------------------------------------
     Non-local corr. energy    =       0.19393378 Ry
     -----------------------------------------------


     total cpu time spent up to now is       62.4 secs

     total energy              =     -48.24254133 Ry
     estimated scf accuracy    <       0.00145569 Ry

     iteration #  4     ecut=    60.00 Ry     beta= 0.70
     Davidson diagonalization with overlap

---- Real-time Memory Report at c_bands before calling an iterative solver
             0 MiB given to the printing process from OS
             0 MiB allocation reported by mallinfo(arena+hblkhd)
             0 MiB available memory on the node where the printing process lives
------------------
     ethr =  9.10E-06,  avg # of iterations =  8.0


     -----------------------------------------------
     Non-local corr. energy    =       0.19397859 Ry
     -----------------------------------------------


     total cpu time spent up to now is       64.7 secs

     total energy              =     -48.24258528 Ry
     estimated scf accuracy    <       0.00178448 Ry

     iteration #  5     ecut=    60.00 Ry     beta= 0.70
     Davidson diagonalization with overlap

---- Real-time Memory Report at c_bands before calling an iterative solver
             0 MiB given to the printing process from OS
             0 MiB allocation reported by mallinfo(arena+hblkhd)
             0 MiB available memory on the node where the printing process lives
------------------
     ethr =  9.10E-06,  avg # of iterations =  7.6


     -----------------------------------------------
     Non-local corr. energy    =       0.19401771 Ry
     -----------------------------------------------


     total cpu time spent up to now is       66.7 secs

     WARNING: integrated charge=    16.00001171, expected=    16.00000000

     total energy              =     -48.24294165 Ry
     estimated scf accuracy    <       0.00242652 Ry

     iteration #  6     ecut=    60.00 Ry     beta= 0.70
     Davidson diagonalization with overlap

---- Real-time Memory Report at c_bands before calling an iterative solver
             0 MiB given to the printing process from OS
             0 MiB allocation reported by mallinfo(arena+hblkhd)
             0 MiB available memory on the node where the printing process lives
------------------
     ethr =  9.10E-06,  avg # of iterations =  4.3


     -----------------------------------------------
     Non-local corr. energy    =       0.19404954 Ry
     -----------------------------------------------


     total cpu time spent up to now is       68.5 secs

     WARNING: integrated charge=    16.00000318, expected=    16.00000000

     total energy              =     -48.24307142 Ry
     estimated scf accuracy    <       0.00011119 Ry

     iteration #  7     ecut=    60.00 Ry     beta= 0.70
     Davidson diagonalization with overlap

---- Real-time Memory Report at c_bands before calling an iterative solver
             0 MiB given to the printing process from OS
             0 MiB allocation reported by mallinfo(arena+hblkhd)
             0 MiB available memory on the node where the printing process lives
------------------
     ethr =  6.95E-07,  avg # of iterations =  5.0


     -----------------------------------------------
     Non-local corr. energy    =       0.19408073 Ry
     -----------------------------------------------


     total cpu time spent up to now is       70.3 secs

     total energy              =     -48.24308313 Ry
     estimated scf accuracy    <       0.00000641 Ry

     iteration #  8     ecut=    60.00 Ry     beta= 0.70
     Davidson diagonalization with overlap

---- Real-time Memory Report at c_bands before calling an iterative solver
             0 MiB given to the printing process from OS
             0 MiB allocation reported by mallinfo(arena+hblkhd)
             0 MiB available memory on the node where the printing process lives
------------------
     ethr =  4.00E-08,  avg # of iterations =  1.8


     -----------------------------------------------
     Non-local corr. energy    =       0.19408236 Ry
     -----------------------------------------------


     total cpu time spent up to now is       72.2 secs

     total energy              =     -48.24308254 Ry
     estimated scf accuracy    <       0.00000434 Ry

     iteration #  9     ecut=    60.00 Ry     beta= 0.70
     Davidson diagonalization with overlap

---- Real-time Memory Report at c_bands before calling an iterative solver
             0 MiB given to the printing process from OS
             0 MiB allocation reported by mallinfo(arena+hblkhd)
             0 MiB available memory on the node where the printing process lives
------------------
     ethr =  2.71E-08,  avg # of iterations =  1.8


     -----------------------------------------------
     Non-local corr. energy    =       0.19408252 Ry
     -----------------------------------------------


     total cpu time spent up to now is       74.0 secs

     End of self-consistent calculation

          k = 0.0000 0.0000 0.0000 (  5505 PWs)   bands (ev):

   -20.1538 -19.9807  -8.7240  -7.6485  -3.6371  -3.6370  -3.6259  -3.6258
     2.5623   2.9844   4.0494   5.1928   5.6433   7.4817   7.8366   7.8367

     occupation numbers 
     1.0000   1.0000   1.0000   1.0000   1.0000   1.0000   1.0000   1.0000
     0.0000   0.0000   0.0000   0.0000   0.0000   0.0000   0.0000   0.0000

          k = 0.0000 0.0962 0.0000 (  5518 PWs)   bands (ev):

   -19.9894 -19.8181  -8.5245  -7.4558  -4.2917  -4.2723  -3.9779  -3.9615
     2.7825   3.2063   4.2758   5.4174   5.8530   7.6746   7.8735   7.9468

     occupation numbers 
     1.0000   1.0000   1.0000   1.0000   1.0000   1.0000   1.0000   1.0000
     0.0000   0.0000   0.0000   0.0000   0.0000   0.0000   0.0000   0.0000

          k = 0.0000 0.1925 0.0000 (  5532 PWs)   bands (ev):

   -19.4982 -19.3320  -7.9318  -6.8844  -5.9356  -5.8969  -4.7720  -4.7491
     3.4425   3.8704   4.9547   6.0898   6.4764   7.7823   7.8863   8.3060

     occupation numbers 
     1.0000   1.0000   1.0000   1.0000   1.0000   1.0000   1.0000   1.0000
     0.0000   0.0000   0.0000   0.0000   0.0000   0.0000   0.0000   0.0000

          k = 0.0000 0.2887 0.0000 (  5500 PWs)   bands (ev):

   -18.6855 -18.5280  -8.0390  -7.9805  -6.9619  -5.9548  -5.6525  -5.6255
     4.5393   4.9613   6.0838   6.4860   6.8018   7.2075   7.4188   7.5213

     occupation numbers 
     1.0000   1.0000   1.0000   1.0000   1.0000   1.0000   1.0000   1.0000
     0.0000   0.0000   0.0000   0.0000   0.0000   0.0000   0.0000   0.0000

          k = 0.0000 0.3849 0.0000 (  5544 PWs)   bands (ev):

   -17.5650 -17.4189 -10.2467 -10.1696  -6.3880  -6.3581  -5.6595  -4.7277
     4.0754   4.5877   6.0653   6.5357   7.1195   7.2922   7.6839   8.7917

     occupation numbers 
     1.0000   1.0000   1.0000   1.0000   1.0000   1.0000   1.0000   1.0000
     0.0000   0.0000   0.0000   0.0000   0.0000   0.0000   0.0000   0.0000

          k = 0.0000 0.4811 0.0000 (  5530 PWs)   bands (ev):

   -16.1661 -16.0361 -12.3492 -12.2553  -6.8618  -6.8310  -4.1590  -3.3996
     1.9279   2.4873   6.8449   7.0611   8.0374   8.5049   9.6961  10.7819

     occupation numbers 
     1.0000   1.0000   1.0000   1.0000   1.0000   1.0000   1.0000   1.0000
     0.0000   0.0000   0.0000   0.0000   0.0000   0.0000   0.0000   0.0000

          k = 0.0000-0.5774 0.0000 (  5540 PWs)   bands (ev):

   -14.8824 -14.8169 -13.8212 -13.7716  -7.0247  -6.9936  -3.1573  -2.7591
     0.9441   1.3255   6.7581   6.9860  10.3082  10.3862  10.8001  10.8684

     occupation numbers 
     1.0000   1.0000   1.0000   1.0000   1.0000   1.0000   1.0000   1.0000
     0.0000   0.0000   0.0000   0.0000   0.0000   0.0000   0.0000   0.0000

          k = 0.0833 0.1443 0.0000 (  5513 PWs)   bands (ev):

   -19.6616 -19.4937  -8.1282  -7.0733  -5.3248  -5.3050  -4.6504  -4.6362
     3.2228   3.6496   4.7285   5.8663   6.2724   8.0565   8.1518   8.2831

     occupation numbers 
     1.0000   1.0000   1.0000   1.0000   1.0000   1.0000   1.0000   1.0000
     0.0000   0.0000   0.0000   0.0000   0.0000   0.0000   0.0000   0.0000

          k = 0.0833 0.2406 0.0000 (  5507 PWs)   bands (ev):

   -19.0097 -18.8487  -7.3464  -7.0412  -7.0012  -6.3214  -5.6517  -5.6259
     4.1023   4.5320   5.6336   6.7595   7.0929   7.3777   7.6275   8.2814

     occupation numbers 
     1.0000   1.0000   1.0000   1.0000   1.0000   1.0000   1.0000   1.0000
     0.0000   0.0000   0.0000   0.0000   0.0000   0.0000   0.0000   0.0000

          k = 0.0833 0.3368 0.0000 (  5525 PWs)   bands (ev):

   -18.0430 -17.8920  -9.1209  -9.0570  -6.5423  -6.5083  -6.2050  -5.2355
     5.1276   5.4122   5.5513   5.8927   6.9880   7.9454   8.0689   8.1581

     occupation numbers 
     1.0000   1.0000   1.0000   1.0000   1.0000   1.0000   1.0000   1.0000
     0.0000   0.0000   0.0000   0.0000   0.0000   0.0000   0.0000   0.0000

          k = 0.0833 0.4330 0.0000 (  5525 PWs)   bands (ev):

   -16.7802 -16.6427 -11.2483 -11.1640  -7.1792  -7.1415  -4.7760  -3.9133
     2.8897   3.4062   7.1425   7.5571   7.7309   7.8934   8.8005   9.8943

     occupation numbers 
     1.0000   1.0000   1.0000   1.0000   1.0000   1.0000   1.0000   1.0000
     0.0000   0.0000   0.0000   0.0000   0.0000   0.0000   0.0000   0.0000

          k = 0.0833 0.5292 0.0000 (  5533 PWs)   bands (ev):

   -15.2960 -15.1818 -13.1864 -13.0934  -7.5090  -7.4695  -3.3395  -2.7689
     1.1769   1.6209   7.4857   7.7232   9.3009   9.7436  11.0067  11.5992

     occupation numbers 
     1.0000   1.0000   1.0000   1.0000   1.0000   1.0000   1.0000   1.0000
     0.0000   0.0000   0.0000   0.0000   0.0000   0.0000   0.0000   0.0000

          k = 0.1667 0.2887 0.0000 (  5510 PWs)   bands (ev):

   -18.2035 -18.0510  -8.3683  -8.3365  -7.0051  -6.9814  -6.3893  -5.4076
     5.1980   5.6258   5.6583   5.9328   6.7640   7.8779   8.1217   9.4518

     occupation numbers 
     1.0000   1.0000   1.0000   1.0000   1.0000   1.0000   1.0000   1.0000
     0.0000   0.0000   0.0000   0.0000   0.0000   0.0000   0.0000   0.0000

          k = 0.1667 0.3849 0.0000 (  5515 PWs)   bands (ev):

   -17.0934 -16.9525 -10.1051 -10.0446  -8.0692  -8.0275  -5.1009  -4.1947
     3.6729   4.0293   6.7214   7.1408   8.3387   9.3892   9.4056   9.6312

     occupation numbers 
     1.0000   1.0000   1.0000   1.0000   1.0000   1.0000   1.0000   1.0000
     0.0000   0.0000   0.0000   0.0000   0.0000   0.0000   0.0000   0.0000

          k = 0.1667 0.4811 0.0000 (  5530 PWs)   bands (ev):

   -15.7150 -15.5895 -12.0207 -11.9356  -8.6519  -8.5994  -3.6025  -2.8553
     1.7350   2.1596   8.6410   8.9825   9.3732   9.6173  10.3268  10.8233

     occupation numbers 
     1.0000   1.0000   1.0000   1.0000   1.0000   1.0000   1.0000   1.0000
     0.0000   0.0000   0.0000   0.0000   0.0000   0.0000   0.0000   0.0000

          k = 0.1667 0.5774 0.0000 (  5518 PWs)   bands (ev):

   -14.4605 -14.3980 -13.4222 -13.3790  -8.8384  -8.7833  -2.5580  -2.1663
     0.8141   0.9983   9.2258   9.5371  10.6738  10.8552  10.9255  10.9795

     occupation numbers 
     1.0000   1.0000   1.0000   1.0000   1.0000   1.0000   1.0000   1.0000
     0.0000   0.0000   0.0000   0.0000   0.0000   0.0000   0.0000   0.0000

          k = 0.2500 0.4330 0.0000 (  5486 PWs)   bands (ev):

   -15.8628 -15.7351 -11.1346 -11.0903  -9.5378  -9.5049  -3.7098  -2.9081
     2.0688   2.4088   8.4303   8.7340  10.0315  10.4201  10.9684  11.5165

     occupation numbers 
     1.0000   1.0000   1.0000   1.0000   1.0000   1.0000   1.0000   1.0000
     0.0000   0.0000   0.0000   0.0000   0.0000   0.0000   0.0000   0.0000

          k = 0.2500 0.5292 0.0000 (  5487 PWs)   bands (ev):

   -14.4357 -14.3313 -12.5608 -12.4908 -10.2565 -10.2012  -2.2259  -1.6514
     0.5798   0.8879   9.9553  10.2564  10.4545  11.3884  11.7927  12.1142

     occupation numbers 
     1.0000   1.0000   1.0000   1.0000   1.0000   1.0000   1.0000   1.0000
     0.0000   0.0000   0.0000   0.0000   0.0000   0.0000   0.0000   0.0000

          k = 0.3333 0.5774 0.0000 (  5484 PWs)   bands (ev):

   -13.2295 -13.1730 -13.1699 -13.1192 -11.1145 -11.1114  -0.9454  -0.5820
    -0.5790  -0.1893   9.8669   9.8688  11.8500  12.1639  12.1642  12.9582

     occupation numbers 
     1.0000   1.0000   1.0000   1.0000   1.0000   1.0000   1.0000   0.5161
     0.4839   0.0000   0.0000   0.0000   0.0000   0.0000   0.0000   0.0000

     the Fermi energy is    -0.5710 ev

!    total energy              =     -48.24308234 Ry
     estimated scf accuracy    <       0.00000086 Ry
     smearing contrib. (-TS)   =      -0.00004553 Ry
     internal energy E=F+TS    =     -48.24303681 Ry

     The total energy is F=E-TS. E is the sum of the following terms:
     one-electron contribution =    -529.06283385 Ry
     hartree contribution      =     268.20200068 Ry
     xc contribution           =     -17.20839167 Ry
     ewald contribution        =     229.82618804 Ry

     convergence has been achieved in   9 iterations


     -----------------------------------------------
     Non-local corr. energy    =       0.19408252 Ry
     -----------------------------------------------


     Forces acting on atoms (cartesian axes, Ry/au):

     atom    1 type  1   force =     0.00000000   -0.00000000    0.00041708
     atom    2 type  1   force =     0.00000000    0.00000000   -0.00042358
     atom    3 type  1   force =     0.00000000    0.00000000   -0.00085407
     atom    4 type  1   force =     0.00000000    0.00000000    0.00086056
     The non-local contrib.  to forces
     atom    1 type  1   force =     0.00000000   -0.00000000    0.00054306
     atom    2 type  1   force =     0.00000000   -0.00000000   -0.00058324
     atom    3 type  1   force =     0.00000000   -0.00000000   -0.00116618
     atom    4 type  1   force =     0.00000000    0.00000000    0.00114415
     The ionic contribution  to forces
     atom    1 type  1   force =     0.00000851   -0.00000491  -14.19328446
     atom    2 type  1   force =    -0.00000851    0.00000491   14.19328446
     atom    3 type  1   force =    -0.00000852    0.00000492  -14.18753220
     atom    4 type  1   force =     0.00000852   -0.00000492   14.18753220
     The local contribution  to forces
     atom    1 type  1   force =    -0.00000000   -0.00000000   14.19231428
     atom    2 type  1   force =     0.00000000   -0.00000000  -14.19422171
     atom    3 type  1   force =    -0.00000677    0.00000391   14.18692889
     atom    4 type  1   force =     0.00000677   -0.00000391  -14.18884149
     The core correction contribution to forces
     atom    1 type  1   force =    -0.00000000    0.00000000   -0.00009909
     atom    2 type  1   force =     0.00000000   -0.00000000    0.00010075
     atom    3 type  1   force =     0.00000056   -0.00000032   -0.00002663
     atom    4 type  1   force =    -0.00000056    0.00000032    0.00002778
     The Hubbard contrib.    to forces
     atom    1 type  1   force =     0.00000000    0.00000000    0.00000000
     atom    2 type  1   force =     0.00000000    0.00000000    0.00000000
     atom    3 type  1   force =     0.00000000    0.00000000    0.00000000
     atom    4 type  1   force =     0.00000000    0.00000000    0.00000000
     The SCF correction term to forces
     atom    1 type  1   force =    -0.00000000    0.00000000    0.00000000
     atom    2 type  1   force =    -0.00000000    0.00000000    0.00099509
     atom    3 type  1   force =     0.00000000   -0.00000000    0.00000000
     atom    4 type  1   force =     0.00000000   -0.00000000    0.00099686

     Total force =     0.000959     Total SCF correction =     0.001409
     SCF correction compared to forces is large: reduce conv_thr to get better values


     Computing stress (Cartesian axis) and pressure



     -----------------------------------------------
     Non-local corr. energy    =       0.19408252 Ry
     -----------------------------------------------

          total   stress  (Ry/bohr**3)                   (kbar)     P=      -15.01
  -0.00009981   0.00000000   0.00000000          -14.68        0.00        0.00
   0.00000000  -0.00009981  -0.00000000            0.00      -14.68       -0.00
   0.00000000  -0.00000000  -0.00010643            0.00       -0.00      -15.66

     kinetic stress (kbar)   4517.23     -0.00      0.00
                               -0.00   4517.23      0.00
                                0.00      0.00   4972.99

     local   stress (kbar)-115136.16      0.00     -0.00
                                0.00-115136.16      0.00
                               -0.00      0.00 116483.19

     nonloc. stress (kbar)   -463.56     -0.00      0.00
                               -0.00   -463.56      0.00
                                0.00      0.00   -387.57

     hartree stress (kbar)  55765.67     -0.00     -0.00
                               -0.00  55765.67     -0.00
                               -0.00     -0.00 -55418.51

     exc-cor stress (kbar)   -360.57     -0.00     -0.00
                               -0.00   -360.57      0.00
                               -0.00      0.00   -420.13

     corecor stress (kbar)   -686.84      0.00      0.00
                                0.00   -686.84     -0.00
                                0.00     -0.00   -668.00

     ewald   stress (kbar)  56346.45     -0.01      0.00
                               -0.01  56346.44     -0.00
                                0.00     -0.00 -64608.99

     hubbard stress (kbar)      0.00      0.00      0.00
                                0.00      0.00      0.00
                                0.00      0.00      0.00

     DFT-D   stress (kbar)      0.00      0.00      0.00
                                0.00      0.00      0.00
                                0.00      0.00      0.00

     XDM     stress (kbar)      0.00      0.00      0.00
                                0.00      0.00      0.00
                                0.00      0.00      0.00

     dft-nl  stress (kbar)      3.11      0.00      0.00
                                0.00      3.11     -0.00
                                0.00     -0.00     31.36

     TS-vdW  stress (kbar)      0.00      0.00      0.00
                                0.00      0.00      0.00
                                0.00      0.00      0.00

     MDB     stress (kbar)      0.00      0.00      0.00
                                0.00      0.00      0.00
                                0.00      0.00      0.00

     3D-RISM stress (kbar)      0.00      0.00      0.00
                                0.00      0.00      0.00
                                0.00      0.00      0.00


     Writing all to output data dir ./tmp/C2L_AB_PBE_vdW.save/

     init_run     :     54.33s CPU     54.40s WALL (       1 calls)
     electrons    :     21.93s CPU     19.56s WALL (       1 calls)
     forces       :      0.46s CPU      0.49s WALL (       1 calls)
     stress       :      2.48s CPU      2.56s WALL (       1 calls)

     Called by init_run:
     wfcinit      :      0.95s CPU      0.94s WALL (       1 calls)
     wfcinit:atom :      0.02s CPU      0.02s WALL (      19 calls)
     wfcinit:wfcr :      0.86s CPU      0.86s WALL (      19 calls)
     potinit      :     52.92s CPU     52.97s WALL (       1 calls)
     hinit0       :      0.43s CPU      0.45s WALL (       1 calls)

     Called by electrons:
     c_bands      :     17.91s CPU     15.26s WALL (       9 calls)
     sum_band     :      1.99s CPU      2.00s WALL (       9 calls)
     v_of_rho     :     54.87s CPU     55.13s WALL (      10 calls)
     v_h          :      0.02s CPU      0.02s WALL (      10 calls)
     v_xc         :     55.32s CPU     55.63s WALL (      12 calls)
     mix_rho      :      0.05s CPU      0.08s WALL (       9 calls)
     vdW_kernel   :     52.69s CPU     52.70s WALL (       1 calls)

     Called by c_bands:
     init_us_2    :      0.26s CPU      0.27s WALL (     399 calls)
     init_us_2:cp :      0.26s CPU      0.27s WALL (     399 calls)
     cegterg      :     17.45s CPU     14.79s WALL (     171 calls)

     Called by sum_band:
     sum_band:wei :      0.00s CPU      0.00s WALL (       9 calls)
     sum_band:loo :      1.95s CPU      1.96s WALL (       9 calls)
     sum_band:buf :      0.02s CPU      0.02s WALL (     171 calls)
     sum_band:ini :      0.11s CPU      0.11s WALL (     171 calls)

     Called by *egterg:
     cdiaghg      :      0.25s CPU      0.27s WALL (    1173 calls)
     cegterg:over :      1.08s CPU      1.09s WALL (    1002 calls)
     cegterg:upda :      1.21s CPU      0.43s WALL (    1002 calls)
     cegterg:last :      1.40s CPU      0.32s WALL (     429 calls)
     h_psi        :     13.85s CPU     13.00s WALL (    1192 calls)
     g_psi        :      0.13s CPU      0.13s WALL (    1002 calls)

     Called by h_psi:
     h_psi:calbec :      0.90s CPU      0.91s WALL (    1192 calls)
     vloc_psi     :     11.57s CPU     11.68s WALL (    1192 calls)
     add_vuspsi   :      1.32s CPU      0.33s WALL (    1192 calls)

     General routines
     calbec       :      1.06s CPU      1.07s WALL (    1287 calls)
     fft          :      1.16s CPU      1.17s WALL (     768 calls)
     ffts         :      0.01s CPU      0.01s WALL (       9 calls)
     fftw         :     11.71s CPU     11.80s WALL (   19298 calls)

     Parallel routines

     PWSCF        :   1m19.25s CPU   1m17.12s WALL


   This run was terminated on:  16:38: 7   4Apr2024            

=------------------------------------------------------------------------------=
   JOB DONE.
=------------------------------------------------------------------------------=
